unknown system                          
   1.0000000000000000     
     4.282000    0.000000    0.000000
     0.000000    4.282000    0.000000
     0.000000    0.000000    4.282000
   Na
     2
Direct
  0.000000  0.000000  0.000000
  0.500000  0.500000  0.500000

   48   48   48
 -.65831E-01 -.41295E-01 0.30656E-01 0.14529     0.29540     0.47220     0.66619     0.86794      1.0687      1.2611    
  1.4389      1.5981      1.7357      1.8506      1.9428      2.0135      2.0652      2.0998      2.1201      2.1300    
  2.1333      2.1334      2.1326      2.1318      2.1315      2.1318      2.1326      2.1334      2.1333      2.1300    
  2.1201      2.0998      2.0652      2.0135      1.9428      1.8506      1.7357      1.5981      1.4389      1.2611    
  1.0687     0.86794     0.66619     0.47220     0.29540     0.14529     0.30656E-01 -.41295E-01 -.41295E-01 -.17035E-01
 0.54113E-01 0.16748     0.31596     0.49088     0.68282     0.88246      1.0812      1.2715      1.4475      1.6050    
  1.7412      1.8549      1.9460      2.0159      2.0669      2.1010      2.1209      2.1305      2.1337      2.1338    
  2.1328      2.1320      2.1317      2.1320      2.1328      2.1338      2.1337      2.1305      2.1209      2.1010    
  2.0669      2.0159      1.9460      1.8549      1.7412      1.6050      1.4475      1.2715      1.0812     0.88246    
 0.68282     0.49088     0.31596     0.16748     0.54113E-01 -.17035E-01 0.30656E-01 0.54113E-01 0.12292     0.23260    
 0.37632     0.54571     0.73166     0.92512      1.1177      1.3022      1.4728      1.6254      1.7574      1.8674    
  1.9555      2.0230      2.0720      2.1045      2.1233      2.1321      2.1349      2.1347      2.1336      2.1327    
  2.1324      2.1327      2.1336      2.1347      2.1349      2.1321      2.1233      2.1045      2.0720      2.0230    
  1.9555      1.8674      1.7574      1.6254      1.4728      1.3022      1.1177     0.92512     0.73166     0.54571    
 0.37632     0.23260     0.12292     0.54113E-01 0.14529     0.16748     0.23260     0.33646     0.47266     0.63328    
 0.80970     0.99332      1.1761      1.3513      1.5133      1.6581      1.7833      1.8875      1.9707      2.0341    
  2.0800      2.1099      2.1269      2.1345      2.1366      2.1360      2.1348      2.1338      2.1334      2.1338    
  2.1348      2.1360      2.1366      2.1345      2.1269      2.1099      2.0800      2.0341      1.9707      1.8875    
  1.7833      1.6581      1.5133      1.3513      1.1761     0.99332     0.80970     0.63328     0.47266     0.33646    
 0.23260     0.16748     0.29540     0.31596     0.37632     0.47266     0.59908     0.74829     0.91227      1.0830    
  1.2530      1.4159      1.5665      1.7012      1.8174      1.9138      1.9905      2.0488      2.0903      2.1169    
  2.1314      2.1376      2.1388      2.1377      2.1362      2.1351      2.1347      2.1351      2.1362      2.1377    
  2.1388      2.1376      2.1314      2.1169      2.0903      2.0488      1.9905      1.9138      1.8174      1.7012    
  1.5665      1.4159      1.2530      1.0830     0.91227     0.74829     0.59908     0.47266     0.37632     0.31596    
 0.47220     0.49088     0.54571     0.63328     0.74829     0.88412      1.0335      1.1890      1.3440      1.4924    
  1.6296      1.7522      1.8577      1.9449      2.0138      2.0658      2.1022      2.1248      2.1366      2.1410    
  2.1412      2.1396      2.1378      2.1365      2.1361      2.1365      2.1378      2.1396      2.1412      2.1410    
  2.1366      2.1248      2.1022      2.0658      2.0138      1.9449      1.8577      1.7522      1.6296      1.4924    
  1.3440      1.1890      1.0335     0.88412     0.74829     0.63328     0.54571     0.49088     0.66619     0.68282    
 0.73166     0.80970     0.91227      1.0335      1.1668      1.3057      1.4441      1.5767      1.6991      1.8083    
  1.9019      1.9788      2.0392      2.0842      2.1148      2.1330      2.1419      2.1445      2.1437      2.1416    
  2.1394      2.1379      2.1374      2.1379      2.1394      2.1416      2.1437      2.1445      2.1419      2.1330    
  2.1148      2.0842      2.0392      1.9788      1.9019      1.8083      1.6991      1.5767      1.4441      1.3057    
  1.1668      1.0335     0.91227     0.80970     0.73166     0.68282     0.86794     0.88246     0.92512     0.99332    
  1.0830      1.1890      1.3057      1.4273      1.5485      1.6645      1.7715      1.8665      1.9475      2.0137    
  2.0652      2.1027      2.1272      2.1410      2.1470      2.1479      2.1461      2.1434      2.1409      2.1392    
  2.1386      2.1392      2.1409      2.1434      2.1461      2.1479      2.1470      2.1410      2.1272      2.1027    
  2.0652      2.0137      1.9475      1.8665      1.7715      1.6645      1.5485      1.4273      1.3057      1.1890    
  1.0830     0.99332     0.92512     0.88246      1.0687      1.0812      1.1177      1.1761      1.2530      1.3440    
  1.4441      1.5485      1.6524      1.7518      1.8432      1.9239      1.9923      2.0477      2.0902      2.1201    
  2.1387      2.1483      2.1515      2.1509      2.1483      2.1452      2.1423      2.1404      2.1398      2.1404    
  2.1423      2.1452      2.1483      2.1509      2.1515      2.1483      2.1387      2.1201      2.0902      2.0477    
  1.9923      1.9239      1.8432      1.7518      1.6524      1.5485      1.4441      1.3440      1.2530      1.1761    
  1.1177      1.0812      1.2611      1.2715      1.3022      1.3513      1.4159      1.4924      1.5767      1.6645    
  1.7518      1.8350      1.9112      1.9781      2.0343      2.0793      2.1128      2.1354      2.1485      2.1543    
  2.1553      2.1534      2.1502      2.1466      2.1435      2.1415      2.1407      2.1415      2.1435      2.1466    
  2.1502      2.1534      2.1553      2.1543      2.1485      2.1354      2.1128      2.0793      2.0343      1.9781    
  1.9112      1.8350      1.7518      1.6645      1.5767      1.4924      1.4159      1.3513      1.3022      1.2715    
  1.4389      1.4475      1.4728      1.5133      1.5665      1.6296      1.6991      1.7715      1.8432      1.9112    
  1.9731      2.0270      2.0718      2.1069      2.1320      2.1479      2.1562      2.1589      2.1581      2.1553    
  2.1515      2.1477      2.1444      2.1422      2.1414      2.1422      2.1444      2.1477      2.1515      2.1553    
  2.1581      2.1589      2.1562      2.1479      2.1320      2.1069      2.0718      2.0270      1.9731      1.9112    
  1.8432      1.7715      1.6991      1.6296      1.5665      1.5133      1.4728      1.4475      1.5981      1.6050    
  1.6254      1.6581      1.7012      1.7522      1.8083      1.8665      1.9239      1.9781      2.0270      2.0691    
  2.1035      2.1294      2.1470      2.1572      2.1617      2.1620      2.1599      2.1564      2.1523      2.1483    
  2.1450      2.1427      2.1419      2.1427      2.1450      2.1483      2.1523      2.1564      2.1599      2.1620    
  2.1617      2.1572      2.1470      2.1294      2.1035      2.0691      2.0270      1.9781      1.9239      1.8665    
  1.8083      1.7522      1.7012      1.6581      1.6254      1.6050      1.7357      1.7412      1.7574      1.7833    
  1.8174      1.8577      1.9019      1.9475      1.9923      2.0343      2.0718      2.1035      2.1285      2.1464    
  2.1577      2.1634      2.1650      2.1636      2.1606      2.1567      2.1525      2.1485      2.1451      2.1429    
  2.1421      2.1429      2.1451      2.1485      2.1525      2.1567      2.1606      2.1636      2.1650      2.1634    
  2.1577      2.1464      2.1285      2.1035      2.0718      2.0343      1.9923      1.9475      1.9019      1.8577    
  1.8174      1.7833      1.7574      1.7412      1.8506      1.8549      1.8674      1.8875      1.9138      1.9449    
  1.9788      2.0137      2.0477      2.0793      2.1069      2.1294      2.1464      2.1578      2.1643      2.1669    
  2.1664      2.1640      2.1604      2.1563      2.1520      2.1480      2.1448      2.1427      2.1419      2.1427    
  2.1448      2.1480      2.1520      2.1563      2.1604      2.1640      2.1664      2.1669      2.1643      2.1578    
  2.1464      2.1294      2.1069      2.0793      2.0477      2.0137      1.9788      1.9449      1.9138      1.8875    
  1.8674      1.8549      1.9428      1.9460      1.9555      1.9707      1.9905      2.0138      2.0392      2.0652    
  2.0902      2.1128      2.1320      2.1470      2.1577      2.1643      2.1675      2.1679      2.1663      2.1632    
  2.1594      2.1552      2.1510      2.1472      2.1441      2.1421      2.1414      2.1421      2.1441      2.1472    
  2.1510      2.1552      2.1594      2.1632      2.1663      2.1679      2.1675      2.1643      2.1577      2.1470    
  2.1320      2.1128      2.0902      2.0652      2.0392      2.0138      1.9905      1.9707      1.9555      1.9460    
  2.0135      2.0159      2.0230      2.0341      2.0488      2.0658      2.0842      2.1027      2.1201      2.1354    
  2.1479      2.1572      2.1634      2.1669      2.1679      2.1671      2.1648      2.1615      2.1576      2.1535    
  2.1494      2.1459      2.1431      2.1413      2.1407      2.1413      2.1431      2.1459      2.1494      2.1535    
  2.1576      2.1615      2.1648      2.1671      2.1679      2.1669      2.1634      2.1572      2.1479      2.1354    
  2.1201      2.1027      2.0842      2.0658      2.0488      2.0341      2.0230      2.0159      2.0652      2.0669    
  2.0720      2.0800      2.0903      2.1022      2.1148      2.1272      2.1387      2.1485      2.1562      2.1617    
  2.1650      2.1664      2.1663      2.1648      2.1623      2.1590      2.1552      2.1513      2.1475      2.1443    
  2.1418      2.1403      2.1398      2.1403      2.1418      2.1443      2.1475      2.1513      2.1552      2.1590    
  2.1623      2.1648      2.1663      2.1664      2.1650      2.1617      2.1562      2.1485      2.1387      2.1272    
  2.1148      2.1022      2.0903      2.0800      2.0720      2.0669      2.0998      2.1010      2.1045      2.1099    
  2.1169      2.1248      2.1330      2.1410      2.1483      2.1543      2.1589      2.1620      2.1636      2.1640    
  2.1632      2.1615      2.1590      2.1559      2.1523      2.1487      2.1453      2.1424      2.1403      2.1391    
  2.1386      2.1391      2.1403      2.1424      2.1453      2.1487      2.1523      2.1559      2.1590      2.1615    
  2.1632      2.1640      2.1636      2.1620      2.1589      2.1543      2.1483      2.1410      2.1330      2.1248    
  2.1169      2.1099      2.1045      2.1010      2.1201      2.1209      2.1233      2.1269      2.1314      2.1366    
  2.1419      2.1470      2.1515      2.1553      2.1581      2.1599      2.1606      2.1604      2.1594      2.1576    
  2.1552      2.1523      2.1491      2.1459      2.1429      2.1405      2.1388      2.1377      2.1374      2.1377    
  2.1388      2.1405      2.1429      2.1459      2.1491      2.1523      2.1552      2.1576      2.1594      2.1604    
  2.1606      2.1599      2.1581      2.1553      2.1515      2.1470      2.1419      2.1366      2.1314      2.1269    
  2.1233      2.1209      2.1300      2.1305      2.1321      2.1345      2.1376      2.1410      2.1445      2.1479    
  2.1509      2.1534      2.1553      2.1564      2.1567      2.1563      2.1552      2.1535      2.1513      2.1487    
  2.1459      2.1431      2.1406      2.1386      2.1372      2.1363      2.1361      2.1363      2.1372      2.1386    
  2.1406      2.1431      2.1459      2.1487      2.1513      2.1535      2.1552      2.1563      2.1567      2.1564    
  2.1553      2.1534      2.1509      2.1479      2.1445      2.1410      2.1376      2.1345      2.1321      2.1305    
  2.1333      2.1337      2.1349      2.1366      2.1388      2.1412      2.1437      2.1461      2.1483      2.1502    
  2.1515      2.1523      2.1525      2.1520      2.1510      2.1494      2.1475      2.1453      2.1429      2.1406    
  2.1386      2.1369      2.1357      2.1349      2.1347      2.1349      2.1357      2.1369      2.1386      2.1406    
  2.1429      2.1453      2.1475      2.1494      2.1510      2.1520      2.1525      2.1523      2.1515      2.1502    
  2.1483      2.1461      2.1437      2.1412      2.1388      2.1366      2.1349      2.1337      2.1334      2.1338    
  2.1347      2.1360      2.1377      2.1396      2.1416      2.1434      2.1452      2.1466      2.1477      2.1483    
  2.1485      2.1480      2.1472      2.1459      2.1443      2.1424      2.1405      2.1386      2.1369      2.1354    
  2.1343      2.1337      2.1334      2.1337      2.1343      2.1354      2.1369      2.1386      2.1405      2.1424    
  2.1443      2.1459      2.1472      2.1480      2.1485      2.1483      2.1477      2.1466      2.1452      2.1434    
  2.1416      2.1396      2.1377      2.1360      2.1347      2.1338      2.1326      2.1328      2.1336      2.1348    
  2.1362      2.1378      2.1394      2.1409      2.1423      2.1435      2.1444      2.1450      2.1451      2.1448    
  2.1441      2.1431      2.1418      2.1403      2.1388      2.1372      2.1357      2.1343      2.1333      2.1326    
  2.1324      2.1326      2.1333      2.1343      2.1357      2.1372      2.1388      2.1403      2.1418      2.1431    
  2.1441      2.1448      2.1451      2.1450      2.1444      2.1435      2.1423      2.1409      2.1394      2.1378    
  2.1362      2.1348      2.1336      2.1328      2.1318      2.1320      2.1327      2.1338      2.1351      2.1365    
  2.1379      2.1392      2.1404      2.1415      2.1422      2.1427      2.1429      2.1427      2.1421      2.1413    
  2.1403      2.1391      2.1377      2.1363      2.1349      2.1337      2.1326      2.1320      2.1317      2.1320    
  2.1326      2.1337      2.1349      2.1363      2.1377      2.1391      2.1403      2.1413      2.1421      2.1427    
  2.1429      2.1427      2.1422      2.1415      2.1404      2.1392      2.1379      2.1365      2.1351      2.1338    
  2.1327      2.1320      2.1315      2.1317      2.1324      2.1334      2.1347      2.1361      2.1374      2.1386    
  2.1398      2.1407      2.1414      2.1419      2.1421      2.1419      2.1414      2.1407      2.1398      2.1386    
  2.1374      2.1361      2.1347      2.1334      2.1324      2.1317      2.1315      2.1317      2.1324      2.1334    
  2.1347      2.1361      2.1374      2.1386      2.1398      2.1407      2.1414      2.1419      2.1421      2.1419    
  2.1414      2.1407      2.1398      2.1386      2.1374      2.1361      2.1347      2.1334      2.1324      2.1317    
  2.1318      2.1320      2.1327      2.1338      2.1351      2.1365      2.1379      2.1392      2.1404      2.1415    
  2.1422      2.1427      2.1429      2.1427      2.1421      2.1413      2.1403      2.1391      2.1377      2.1363    
  2.1349      2.1337      2.1326      2.1320      2.1317      2.1320      2.1326      2.1337      2.1349      2.1363    
  2.1377      2.1391      2.1403      2.1413      2.1421      2.1427      2.1429      2.1427      2.1422      2.1415    
  2.1404      2.1392      2.1379      2.1365      2.1351      2.1338      2.1327      2.1320      2.1326      2.1328    
  2.1336      2.1348      2.1362      2.1378      2.1394      2.1409      2.1423      2.1435      2.1444      2.1450    
  2.1451      2.1448      2.1441      2.1431      2.1418      2.1403      2.1388      2.1372      2.1357      2.1343    
  2.1333      2.1326      2.1324      2.1326      2.1333      2.1343      2.1357      2.1372      2.1388      2.1403    
  2.1418      2.1431      2.1441      2.1448      2.1451      2.1450      2.1444      2.1435      2.1423      2.1409    
  2.1394      2.1378      2.1362      2.1348      2.1336      2.1328      2.1334      2.1338      2.1347      2.1360    
  2.1377      2.1396      2.1416      2.1434      2.1452      2.1466      2.1477      2.1483      2.1485      2.1480    
  2.1472      2.1459      2.1443      2.1424      2.1405      2.1386      2.1369      2.1354      2.1343      2.1337    
  2.1334      2.1337      2.1343      2.1354      2.1369      2.1386      2.1405      2.1424      2.1443      2.1459    
  2.1472      2.1480      2.1485      2.1483      2.1477      2.1466      2.1452      2.1434      2.1416      2.1396    
  2.1377      2.1360      2.1347      2.1338      2.1333      2.1337      2.1349      2.1366      2.1388      2.1412    
  2.1437      2.1461      2.1483      2.1502      2.1515      2.1523      2.1525      2.1520      2.1510      2.1494    
  2.1475      2.1453      2.1429      2.1406      2.1386      2.1369      2.1357      2.1349      2.1347      2.1349    
  2.1357      2.1369      2.1386      2.1406      2.1429      2.1453      2.1475      2.1494      2.1510      2.1520    
  2.1525      2.1523      2.1515      2.1502      2.1483      2.1461      2.1437      2.1412      2.1388      2.1366    
  2.1349      2.1337      2.1300      2.1305      2.1321      2.1345      2.1376      2.1410      2.1445      2.1479    
  2.1509      2.1534      2.1553      2.1564      2.1567      2.1563      2.1552      2.1535      2.1513      2.1487    
  2.1459      2.1431      2.1406      2.1386      2.1372      2.1363      2.1361      2.1363      2.1372      2.1386    
  2.1406      2.1431      2.1459      2.1487      2.1513      2.1535      2.1552      2.1563      2.1567      2.1564    
  2.1553      2.1534      2.1509      2.1479      2.1445      2.1410      2.1376      2.1345      2.1321      2.1305    
  2.1201      2.1209      2.1233      2.1269      2.1314      2.1366      2.1419      2.1470      2.1515      2.1553    
  2.1581      2.1599      2.1606      2.1604      2.1594      2.1576      2.1552      2.1523      2.1491      2.1459    
  2.1429      2.1405      2.1388      2.1377      2.1374      2.1377      2.1388      2.1405      2.1429      2.1459    
  2.1491      2.1523      2.1552      2.1576      2.1594      2.1604      2.1606      2.1599      2.1581      2.1553    
  2.1515      2.1470      2.1419      2.1366      2.1314      2.1269      2.1233      2.1209      2.0998      2.1010    
  2.1045      2.1099      2.1169      2.1248      2.1330      2.1410      2.1483      2.1543      2.1589      2.1620    
  2.1636      2.1640      2.1632      2.1615      2.1590      2.1559      2.1523      2.1487      2.1453      2.1424    
  2.1403      2.1391      2.1386      2.1391      2.1403      2.1424      2.1453      2.1487      2.1523      2.1559    
  2.1590      2.1615      2.1632      2.1640      2.1636      2.1620      2.1589      2.1543      2.1483      2.1410    
  2.1330      2.1248      2.1169      2.1099      2.1045      2.1010      2.0652      2.0669      2.0720      2.0800    
  2.0903      2.1022      2.1148      2.1272      2.1387      2.1485      2.1562      2.1617      2.1650      2.1664    
  2.1663      2.1648      2.1623      2.1590      2.1552      2.1513      2.1475      2.1443      2.1418      2.1403    
  2.1398      2.1403      2.1418      2.1443      2.1475      2.1513      2.1552      2.1590      2.1623      2.1648    
  2.1663      2.1664      2.1650      2.1617      2.1562      2.1485      2.1387      2.1272      2.1148      2.1022    
  2.0903      2.0800      2.0720      2.0669      2.0135      2.0159      2.0230      2.0341      2.0488      2.0658    
  2.0842      2.1027      2.1201      2.1354      2.1479      2.1572      2.1634      2.1669      2.1679      2.1671    
  2.1648      2.1615      2.1576      2.1535      2.1494      2.1459      2.1431      2.1413      2.1407      2.1413    
  2.1431      2.1459      2.1494      2.1535      2.1576      2.1615      2.1648      2.1671      2.1679      2.1669    
  2.1634      2.1572      2.1479      2.1354      2.1201      2.1027      2.0842      2.0658      2.0488      2.0341    
  2.0230      2.0159      1.9428      1.9460      1.9555      1.9707      1.9905      2.0138      2.0392      2.0652    
  2.0902      2.1128      2.1320      2.1470      2.1577      2.1643      2.1675      2.1679      2.1663      2.1632    
  2.1594      2.1552      2.1510      2.1472      2.1441      2.1421      2.1414      2.1421      2.1441      2.1472    
  2.1510      2.1552      2.1594      2.1632      2.1663      2.1679      2.1675      2.1643      2.1577      2.1470    
  2.1320      2.1128      2.0902      2.0652      2.0392      2.0138      1.9905      1.9707      1.9555      1.9460    
  1.8506      1.8549      1.8674      1.8875      1.9138      1.9449      1.9788      2.0137      2.0477      2.0793    
  2.1069      2.1294      2.1464      2.1578      2.1643      2.1669      2.1664      2.1640      2.1604      2.1563    
  2.1520      2.1480      2.1448      2.1427      2.1419      2.1427      2.1448      2.1480      2.1520      2.1563    
  2.1604      2.1640      2.1664      2.1669      2.1643      2.1578      2.1464      2.1294      2.1069      2.0793    
  2.0477      2.0137      1.9788      1.9449      1.9138      1.8875      1.8674      1.8549      1.7357      1.7412    
  1.7574      1.7833      1.8174      1.8577      1.9019      1.9475      1.9923      2.0343      2.0718      2.1035    
  2.1285      2.1464      2.1577      2.1634      2.1650      2.1636      2.1606      2.1567      2.1525      2.1485    
  2.1451      2.1429      2.1421      2.1429      2.1451      2.1485      2.1525      2.1567      2.1606      2.1636    
  2.1650      2.1634      2.1577      2.1464      2.1285      2.1035      2.0718      2.0343      1.9923      1.9475    
  1.9019      1.8577      1.8174      1.7833      1.7574      1.7412      1.5981      1.6050      1.6254      1.6581    
  1.7012      1.7522      1.8083      1.8665      1.9239      1.9781      2.0270      2.0691      2.1035      2.1294    
  2.1470      2.1572      2.1617      2.1620      2.1599      2.1564      2.1523      2.1483      2.1450      2.1427    
  2.1419      2.1427      2.1450      2.1483      2.1523      2.1564      2.1599      2.1620      2.1617      2.1572    
  2.1470      2.1294      2.1035      2.0691      2.0270      1.9781      1.9239      1.8665      1.8083      1.7522    
  1.7012      1.6581      1.6254      1.6050      1.4389      1.4475      1.4728      1.5133      1.5665      1.6296    
  1.6991      1.7715      1.8432      1.9112      1.9731      2.0270      2.0718      2.1069      2.1320      2.1479    
  2.1562      2.1589      2.1581      2.1553      2.1515      2.1477      2.1444      2.1422      2.1414      2.1422    
  2.1444      2.1477      2.1515      2.1553      2.1581      2.1589      2.1562      2.1479      2.1320      2.1069    
  2.0718      2.0270      1.9731      1.9112      1.8432      1.7715      1.6991      1.6296      1.5665      1.5133    
  1.4728      1.4475      1.2611      1.2715      1.3022      1.3513      1.4159      1.4924      1.5767      1.6645    
  1.7518      1.8350      1.9112      1.9781      2.0343      2.0793      2.1128      2.1354      2.1485      2.1543    
  2.1553      2.1534      2.1502      2.1466      2.1435      2.1415      2.1407      2.1415      2.1435      2.1466    
  2.1502      2.1534      2.1553      2.1543      2.1485      2.1354      2.1128      2.0793      2.0343      1.9781    
  1.9112      1.8350      1.7518      1.6645      1.5767      1.4924      1.4159      1.3513      1.3022      1.2715    
  1.0687      1.0812      1.1177      1.1761      1.2530      1.3440      1.4441      1.5485      1.6524      1.7518    
  1.8432      1.9239      1.9923      2.0477      2.0902      2.1201      2.1387      2.1483      2.1515      2.1509    
  2.1483      2.1452      2.1423      2.1404      2.1398      2.1404      2.1423      2.1452      2.1483      2.1509    
  2.1515      2.1483      2.1387      2.1201      2.0902      2.0477      1.9923      1.9239      1.8432      1.7518    
  1.6524      1.5485      1.4441      1.3440      1.2530      1.1761      1.1177      1.0812     0.86794     0.88246    
 0.92512     0.99332      1.0830      1.1890      1.3057      1.4273      1.5485      1.6645      1.7715      1.8665    
  1.9475      2.0137      2.0652      2.1027      2.1272      2.1410      2.1470      2.1479      2.1461      2.1434    
  2.1409      2.1392      2.1386      2.1392      2.1409      2.1434      2.1461      2.1479      2.1470      2.1410    
  2.1272      2.1027      2.0652      2.0137      1.9475      1.8665      1.7715      1.6645      1.5485      1.4273    
  1.3057      1.1890      1.0830     0.99332     0.92512     0.88246     0.66619     0.68282     0.73166     0.80970    
 0.91227      1.0335      1.1668      1.3057      1.4441      1.5767      1.6991      1.8083      1.9019      1.9788    
  2.0392      2.0842      2.1148      2.1330      2.1419      2.1445      2.1437      2.1416      2.1394      2.1379    
  2.1374      2.1379      2.1394      2.1416      2.1437      2.1445      2.1419      2.1330      2.1148      2.0842    
  2.0392      1.9788      1.9019      1.8083      1.6991      1.5767      1.4441      1.3057      1.1668      1.0335    
 0.91227     0.80970     0.73166     0.68282     0.47220     0.49088     0.54571     0.63328     0.74829     0.88412    
  1.0335      1.1890      1.3440      1.4924      1.6296      1.7522      1.8577      1.9449      2.0138      2.0658    
  2.1022      2.1248      2.1366      2.1410      2.1412      2.1396      2.1378      2.1365      2.1361      2.1365    
  2.1378      2.1396      2.1412      2.1410      2.1366      2.1248      2.1022      2.0658      2.0138      1.9449    
  1.8577      1.7522      1.6296      1.4924      1.3440      1.1890      1.0335     0.88412     0.74829     0.63328    
 0.54571     0.49088     0.29540     0.31596     0.37632     0.47266     0.59908     0.74829     0.91227      1.0830    
  1.2530      1.4159      1.5665      1.7012      1.8174      1.9138      1.9905      2.0488      2.0903      2.1169    
  2.1314      2.1376      2.1388      2.1377      2.1362      2.1351      2.1347      2.1351      2.1362      2.1377    
  2.1388      2.1376      2.1314      2.1169      2.0903      2.0488      1.9905      1.9138      1.8174      1.7012    
  1.5665      1.4159      1.2530      1.0830     0.91227     0.74829     0.59908     0.47266     0.37632     0.31596    
 0.14529     0.16748     0.23260     0.33646     0.47266     0.63328     0.80970     0.99332      1.1761      1.3513    
  1.5133      1.6581      1.7833      1.8875      1.9707      2.0341      2.0800      2.1099      2.1269      2.1345    
  2.1366      2.1360      2.1348      2.1338      2.1334      2.1338      2.1348      2.1360      2.1366      2.1345    
  2.1269      2.1099      2.0800      2.0341      1.9707      1.8875      1.7833      1.6581      1.5133      1.3513    
  1.1761     0.99332     0.80970     0.63328     0.47266     0.33646     0.23260     0.16748     0.30656E-01 0.54113E-01
 0.12292     0.23260     0.37632     0.54571     0.73166     0.92512      1.1177      1.3022      1.4728      1.6254    
  1.7574      1.8674      1.9555      2.0230      2.0720      2.1045      2.1233      2.1321      2.1349      2.1347    
  2.1336      2.1327      2.1324      2.1327      2.1336      2.1347      2.1349      2.1321      2.1233      2.1045    
  2.0720      2.0230      1.9555      1.8674      1.7574      1.6254      1.4728      1.3022      1.1177     0.92512    
 0.73166     0.54571     0.37632     0.23260     0.12292     0.54113E-01 -.41295E-01 -.17035E-01 0.54113E-01 0.16748    
 0.31596     0.49088     0.68282     0.88246      1.0812      1.2715      1.4475      1.6050      1.7412      1.8549    
  1.9460      2.0159      2.0669      2.1010      2.1209      2.1305      2.1337      2.1338      2.1328      2.1320    
  2.1317      2.1320      2.1328      2.1338      2.1337      2.1305      2.1209      2.1010      2.0669      2.0159    
  1.9460      1.8549      1.7412      1.6050      1.4475      1.2715      1.0812     0.88246     0.68282     0.49088    
 0.31596     0.16748     0.54113E-01 -.17035E-01 -.41295E-01 -.17035E-01 0.54113E-01 0.16748     0.31596     0.49088    
 0.68282     0.88246      1.0812      1.2715      1.4475      1.6050      1.7412      1.8549      1.9460      2.0159    
  2.0669      2.1010      2.1209      2.1305      2.1337      2.1338      2.1328      2.1320      2.1317      2.1320    
  2.1328      2.1338      2.1337      2.1305      2.1209      2.1010      2.0669      2.0159      1.9460      1.8549    
  1.7412      1.6050      1.4475      1.2715      1.0812     0.88246     0.68282     0.49088     0.31596     0.16748    
 0.54113E-01 -.17035E-01 -.17035E-01 0.69528E-02 0.77309E-01 0.18943     0.33630     0.50935     0.69927     0.89683    
  1.0935      1.2818      1.4560      1.6119      1.7467      1.8591      1.9493      2.0183      2.0686      2.1022    
  2.1217      2.1311      2.1341      2.1341      2.1331      2.1323      2.1320      2.1323      2.1331      2.1341    
  2.1341      2.1311      2.1217      2.1022      2.0686      2.0183      1.9493      1.8591      1.7467      1.6119    
  1.4560      1.2818      1.0935     0.89683     0.69927     0.50935     0.33630     0.18943     0.77309E-01 0.69528E-02
 0.54113E-01 0.77309E-01 0.14536     0.25383     0.39601     0.56360     0.74760     0.93905      1.1296      1.3122    
  1.4811      1.6321      1.7627      1.8716      1.9587      2.0253      2.0737      2.1056      2.1240      2.1326    
  2.1352      2.1350      2.1339      2.1330      2.1326      2.1330      2.1339      2.1350      2.1352      2.1326    
  2.1240      2.1056      2.0737      2.0253      1.9587      1.8716      1.7627      1.6321      1.4811      1.3122    
  1.1296     0.93905     0.74760     0.56360     0.39601     0.25383     0.14536     0.77309E-01 0.16748     0.18943    