unknown system                          
   1.0000000000000000     
     4.262252    0.000000   -0.000000
     0.000000    4.262252    0.000000
    -0.000000   -0.000000    4.262252
   Na
     2
Direct
  0.000000  0.000000  0.000000
  0.500000  0.500000  0.500000

   48   48   48
 -.42518E-01 -.19122E-01 0.49697E-01 0.15995     0.30542     0.47809     0.66888     0.86832      1.0675      1.2587    
  1.4363      1.5962      1.7355      1.8524      1.9461      2.0172      2.0679      2.1008      2.1197      2.1289    
  2.1327      2.1341      2.1346      2.1349      2.1350      2.1349      2.1346      2.1341      2.1327      2.1289    
  2.1197      2.1008      2.0679      2.0172      1.9461      1.8524      1.7355      1.5962      1.4363      1.2587    
  1.0675     0.86832     0.66888     0.47809     0.30542     0.15995     0.49697E-01 -.19122E-01 -.19122E-01 0.40505E-02
 0.72209E-01 0.18141     0.32546     0.49644     0.68531     0.88272      1.0798      1.2691      1.4449      1.6031    
  1.7410      1.8567      1.9493      2.0195      2.0695      2.1019      2.1204      2.1294      2.1331      2.1344    
  2.1349      2.1352      2.1353      2.1352      2.1349      2.1344      2.1331      2.1294      2.1204      2.1019    
  2.0695      2.0195      1.9493      1.8567      1.7410      1.6031      1.4449      1.2691      1.0798     0.88272    
 0.68531     0.49644     0.32546     0.18141     0.72209E-01 0.40505E-02 0.49697E-01 0.72209E-01 0.13842     0.24449    
 0.38438     0.55036     0.73360     0.92504      1.1161      1.2997      1.4702      1.6236      1.7573      1.8694    
  1.9588      2.0264      2.0743      2.1051      2.1225      2.1309      2.1343      2.1353      2.1357      2.1358    
  2.1359      2.1358      2.1357      2.1353      2.1343      2.1309      2.1225      2.1051      2.0743      2.0264    
  1.9588      1.8694      1.7573      1.6236      1.4702      1.2997      1.1161     0.92504     0.73360     0.55036    
 0.38438     0.24449     0.13842     0.72209E-01 0.15995     0.18141     0.24449     0.34553     0.47872     0.63663    
 0.81084     0.99271      1.1742      1.3486      1.5107      1.6566      1.7835      1.8896      1.9739      2.0373    
  2.0819      2.1101      2.1259      2.1333      2.1361      2.1368      2.1369      2.1369      2.1369      2.1369    
  2.1369      2.1368      2.1361      2.1333      2.1259      2.1101      2.0819      2.0373      1.9739      1.8896    
  1.7835      1.6566      1.5107      1.3486      1.1742     0.99271     0.81084     0.63663     0.47872     0.34553    
 0.24449     0.18141     0.30542     0.32546     0.38438     0.47872     0.60299     0.75019     0.91245      1.0817    
  1.2507      1.4131      1.5641      1.7000      1.8181      1.9162      1.9937      2.0515      2.0916      2.1166    
  2.1301      2.1363      2.1384      2.1388      2.1385      2.1383      2.1382      2.1383      2.1385      2.1388    
  2.1384      2.1363      2.1301      2.1166      2.0916      2.0515      1.9937      1.9162      1.8181      1.7000    
  1.5641      1.4131      1.2507      1.0817     0.91245     0.75019     0.60299     0.47872     0.38438     0.32546    
 0.47809     0.49644     0.55036     0.63663     0.75019     0.88460      1.0327      1.1871      1.3413      1.4896    
  1.6276      1.7516      1.8589      1.9476      2.0169      2.0681      2.1029      2.1239      2.1350      2.1397    
  2.1411      2.1409      2.1403      2.1398      2.1396      2.1398      2.1403      2.1409      2.1411      2.1397    
  2.1350      2.1239      2.1029      2.0681      2.0169      1.9476      1.8589      1.7516      1.6276      1.4896    
  1.3413      1.1871      1.0327     0.88460     0.75019     0.63663     0.55036     0.49644     0.66888     0.68531    
 0.73360     0.81084     0.91245      1.0327      1.1650      1.3032      1.4412      1.5741      1.6977      1.8085    
  1.9038      1.9818      2.0421      2.0859      2.1148      2.1317      2.1401      2.1434      2.1440      2.1433    
  2.1422      2.1413      2.1410      2.1413      2.1422      2.1433      2.1440      2.1434      2.1401      2.1317    
  2.1148      2.0859      2.0421      1.9818      1.9038      1.8085      1.6977      1.5741      1.4412      1.3032    
  1.1650      1.0327     0.91245     0.81084     0.73360     0.68531     0.86832     0.88272     0.92504     0.99271    
  1.0817      1.1871      1.3032      1.4245      1.5458      1.6626      1.7710      1.8677      1.9501      2.0168    
  2.0677      2.1037      2.1266      2.1393      2.1452      2.1471      2.1468      2.1455      2.1440      2.1427    
  2.1422      2.1427      2.1440      2.1455      2.1468      2.1471      2.1452      2.1393      2.1266      2.1037    
  2.0677      2.0168      1.9501      1.8677      1.7710      1.6626      1.5458      1.4245      1.3032      1.1871    
  1.0817     0.99271     0.92504     0.88272      1.0675      1.0798      1.1161      1.1742      1.2507      1.3413    
  1.4412      1.5458      1.6504      1.7509      1.8438      1.9260      1.9953      2.0505      2.0920      2.1203    
  2.1374      2.1463      2.1500      2.1505      2.1495      2.1476      2.1455      2.1439      2.1433      2.1439    
  2.1455      2.1476      2.1495      2.1505      2.1500      2.1463      2.1374      2.1203      2.0920      2.0505    
  1.9953      1.9260      1.8438      1.7509      1.6504      1.5458      1.4412      1.3413      1.2507      1.1742    
  1.1161      1.0798      1.2587      1.2691      1.2997      1.3486      1.4131      1.4896      1.5741      1.6626    
  1.7509      1.8355      1.9130      1.9807      2.0371      2.0814      2.1136      2.1347      2.1467      2.1523    
  2.1540      2.1535      2.1517      2.1493      2.1468      2.1449      2.1442      2.1449      2.1468      2.1493    
  2.1517      2.1535      2.1540      2.1523      2.1467      2.1347      2.1136      2.0814      2.0371      1.9807    
  1.9130      1.8355      1.7509      1.6626      1.5741      1.4896      1.4131      1.3486      1.2997      1.2691    
  1.4363      1.4449      1.4702      1.5107      1.5641      1.6276      1.6977      1.7710      1.8438      1.9130    
  1.9756      2.0296      2.0740      2.1079      2.1316      2.1463      2.1540      2.1570      2.1572      2.1558    
  2.1534      2.1505      2.1477      2.1455      2.1447      2.1455      2.1477      2.1505      2.1534      2.1558    
  2.1572      2.1570      2.1540      2.1463      2.1316      2.1079      2.0740      2.0296      1.9756      1.9130    
  1.8438      1.7710      1.6977      1.6276      1.5641      1.5107      1.4702      1.4449      1.5962      1.6031    
  1.6236      1.6566      1.7000      1.7516      1.8085      1.8677      1.9260      1.9807      2.0296      2.0712    
  2.1045      2.1291      2.1455      2.1549      2.1593      2.1604      2.1594      2.1573      2.1544      2.1512    
  2.1481      2.1459      2.1451      2.1459      2.1481      2.1512      2.1544      2.1573      2.1594      2.1604    
  2.1593      2.1549      2.1455      2.1291      2.1045      2.0712      2.0296      1.9807      1.9260      1.8677    
  1.8085      1.7516      1.7000      1.6566      1.6236      1.6031      1.7355      1.7410      1.7573      1.7835    
  1.8181      1.8589      1.9038      1.9501      1.9953      2.0371      2.0740      2.1045      2.1281      2.1448    
  2.1553      2.1609      2.1628      2.1625      2.1606      2.1579      2.1546      2.1512      2.1481      2.1460    
  2.1452      2.1460      2.1481      2.1512      2.1546      2.1579      2.1606      2.1625      2.1628      2.1609    
  2.1553      2.1448      2.1281      2.1045      2.0740      2.0371      1.9953      1.9501      1.9038      1.8589    
  1.8181      1.7835      1.7573      1.7410      1.8524      1.8567      1.8694      1.8896      1.9162      1.9476    
  1.9818      2.0168      2.0505      2.0814      2.1079      2.1291      2.1448      2.1554      2.1616      2.1645    
  2.1648      2.1634      2.1609      2.1577      2.1541      2.1507      2.1477      2.1458      2.1451      2.1458    
  2.1477      2.1507      2.1541      2.1577      2.1609      2.1634      2.1648      2.1645      2.1616      2.1554    
  2.1448      2.1291      2.1079      2.0814      2.0505      2.0168      1.9818      1.9476      1.9162      1.8896    
  1.8694      1.8567      1.9461      1.9493      1.9588      1.9739      1.9937      2.0169      2.0421      2.0677    
  2.0920      2.1136      2.1316      2.1455      2.1553      2.1616      2.1650      2.1661      2.1655      2.1634    
  2.1604      2.1568      2.1531      2.1497      2.1470      2.1453      2.1447      2.1453      2.1470      2.1497    
  2.1531      2.1568      2.1604      2.1634      2.1655      2.1661      2.1650      2.1616      2.1553      2.1455    
  2.1316      2.1136      2.0920      2.0677      2.0421      2.0169      1.9937      1.9739      1.9588      1.9493    
  2.0172      2.0195      2.0264      2.0373      2.0515      2.0681      2.0859      2.1037      2.1203      2.1347    
  2.1463      2.1549      2.1609      2.1645      2.1661      2.1662      2.1649      2.1624      2.1591      2.1553    
  2.1516      2.1484      2.1461      2.1446      2.1442      2.1446      2.1461      2.1484      2.1516      2.1553    
  2.1591      2.1624      2.1649      2.1662      2.1661      2.1645      2.1609      2.1549      2.1463      2.1347    
  2.1203      2.1037      2.0859      2.0681      2.0515      2.0373      2.0264      2.0195      2.0679      2.0695    
  2.0743      2.0819      2.0916      2.1029      2.1148      2.1266      2.1374      2.1467      2.1540      2.1593    
  2.1628      2.1648      2.1655      2.1649      2.1632      2.1605      2.1571      2.1534      2.1499      2.1470    
  2.1449      2.1437      2.1433      2.1437      2.1449      2.1470      2.1499      2.1534      2.1571      2.1605    
  2.1632      2.1649      2.1655      2.1648      2.1628      2.1593      2.1540      2.1467      2.1374      2.1266    
  2.1148      2.1029      2.0916      2.0819      2.0743      2.0695      2.1008      2.1019      2.1051      2.1101    
  2.1166      2.1239      2.1317      2.1393      2.1463      2.1523      2.1570      2.1604      2.1625      2.1634    
  2.1634      2.1624      2.1605      2.1578      2.1545      2.1511      2.1479      2.1453      2.1435      2.1426    
  2.1422      2.1426      2.1435      2.1453      2.1479      2.1511      2.1545      2.1578      2.1605      2.1624    
  2.1634      2.1634      2.1625      2.1604      2.1570      2.1523      2.1463      2.1393      2.1317      2.1239    
  2.1166      2.1101      2.1051      2.1019      2.1197      2.1204      2.1225      2.1259      2.1301      2.1350    
  2.1401      2.1452      2.1500      2.1540      2.1572      2.1594      2.1606      2.1609      2.1604      2.1591    
  2.1571      2.1545      2.1516      2.1485      2.1458      2.1436      2.1421      2.1412      2.1410      2.1412    
  2.1421      2.1436      2.1458      2.1485      2.1516      2.1545      2.1571      2.1591      2.1604      2.1609    
  2.1606      2.1594      2.1572      2.1540      2.1500      2.1452      2.1401      2.1350      2.1301      2.1259    
  2.1225      2.1204      2.1289      2.1294      2.1309      2.1333      2.1363      2.1397      2.1434      2.1471    
  2.1505      2.1535      2.1558      2.1573      2.1579      2.1577      2.1568      2.1553      2.1534      2.1511    
  2.1485      2.1460      2.1437      2.1419      2.1406      2.1398      2.1396      2.1398      2.1406      2.1419    
  2.1437      2.1460      2.1485      2.1511      2.1534      2.1553      2.1568      2.1577      2.1579      2.1573    
  2.1558      2.1535      2.1505      2.1471      2.1434      2.1397      2.1363      2.1333      2.1309      2.1294    
  2.1327      2.1331      2.1343      2.1361      2.1384      2.1411      2.1440      2.1468      2.1495      2.1517    
  2.1534      2.1544      2.1546      2.1541      2.1531      2.1516      2.1499      2.1479      2.1458      2.1437    
  2.1418      2.1403      2.1391      2.1384      2.1382      2.1384      2.1391      2.1403      2.1418      2.1437    
  2.1458      2.1479      2.1499      2.1516      2.1531      2.1541      2.1546      2.1544      2.1534      2.1517    
  2.1495      2.1468      2.1440      2.1411      2.1384      2.1361      2.1343      2.1331      2.1341      2.1344    
  2.1353      2.1368      2.1388      2.1409      2.1433      2.1455      2.1476      2.1493      2.1505      2.1512    
  2.1512      2.1507      2.1497      2.1484      2.1470      2.1453      2.1436      2.1419      2.1403      2.1389    
  2.1378      2.1371      2.1369      2.1371      2.1378      2.1389      2.1403      2.1419      2.1436      2.1453    
  2.1470      2.1484      2.1497      2.1507      2.1512      2.1512      2.1505      2.1493      2.1476      2.1455    
  2.1433      2.1409      2.1388      2.1368      2.1353      2.1344      2.1346      2.1349      2.1357      2.1369    
  2.1385      2.1403      2.1422      2.1440      2.1455      2.1468      2.1477      2.1481      2.1481      2.1477    
  2.1470      2.1461      2.1449      2.1435      2.1421      2.1406      2.1391      2.1378      2.1368      2.1361    
  2.1359      2.1361      2.1368      2.1378      2.1391      2.1406      2.1421      2.1435      2.1449      2.1461    
  2.1470      2.1477      2.1481      2.1481      2.1477      2.1468      2.1455      2.1440      2.1422      2.1403    
  2.1385      2.1369      2.1357      2.1349      2.1349      2.1352      2.1358      2.1369      2.1383      2.1398    
  2.1413      2.1427      2.1439      2.1449      2.1455      2.1459      2.1460      2.1458      2.1453      2.1446    
  2.1437      2.1426      2.1412      2.1398      2.1384      2.1371      2.1361      2.1355      2.1353      2.1355    
  2.1361      2.1371      2.1384      2.1398      2.1412      2.1426      2.1437      2.1446      2.1453      2.1458    
  2.1460      2.1459      2.1455      2.1449      2.1439      2.1427      2.1413      2.1398      2.1383      2.1369    
  2.1358      2.1352      2.1350      2.1353      2.1359      2.1369      2.1382      2.1396      2.1410      2.1422    
  2.1433      2.1442      2.1447      2.1451      2.1452      2.1451      2.1447      2.1442      2.1433      2.1422    
  2.1410      2.1396      2.1382      2.1369      2.1359      2.1353      2.1350      2.1353      2.1359      2.1369    
  2.1382      2.1396      2.1410      2.1422      2.1433      2.1442      2.1447      2.1451      2.1452      2.1451    
  2.1447      2.1442      2.1433      2.1422      2.1410      2.1396      2.1382      2.1369      2.1359      2.1353    
  2.1349      2.1352      2.1358      2.1369      2.1383      2.1398      2.1413      2.1427      2.1439      2.1449    
  2.1455      2.1459      2.1460      2.1458      2.1453      2.1446      2.1437      2.1426      2.1412      2.1398    
  2.1384      2.1371      2.1361      2.1355      2.1353      2.1355      2.1361      2.1371      2.1384      2.1398    
  2.1412      2.1426      2.1437      2.1446      2.1453      2.1458      2.1460      2.1459      2.1455      2.1449    
  2.1439      2.1427      2.1413      2.1398      2.1383      2.1369      2.1358      2.1352      2.1346      2.1349    
  2.1357      2.1369      2.1385      2.1403      2.1422      2.1440      2.1455      2.1468      2.1477      2.1481    
  2.1481      2.1477      2.1470      2.1461      2.1449      2.1435      2.1421      2.1406      2.1391      2.1378    
  2.1368      2.1361      2.1359      2.1361      2.1368      2.1378      2.1391      2.1406      2.1421      2.1435    
  2.1449      2.1461      2.1470      2.1477      2.1481      2.1481      2.1477      2.1468      2.1455      2.1440    
  2.1422      2.1403      2.1385      2.1369      2.1357      2.1349      2.1341      2.1344      2.1353      2.1368    
  2.1388      2.1409      2.1433      2.1455      2.1476      2.1493      2.1505      2.1512      2.1512      2.1507    
  2.1497      2.1484      2.1470      2.1453      2.1436      2.1419      2.1403      2.1389      2.1378      2.1371    
  2.1369      2.1371      2.1378      2.1389      2.1403      2.1419      2.1436      2.1453      2.1470      2.1484    
  2.1497      2.1507      2.1512      2.1512      2.1505      2.1493      2.1476      2.1455      2.1433      2.1409    
  2.1388      2.1368      2.1353      2.1344      2.1327      2.1331      2.1343      2.1361      2.1384      2.1411    
  2.1440      2.1468      2.1495      2.1517      2.1534      2.1544      2.1546      2.1541      2.1531      2.1516    
  2.1499      2.1479      2.1458      2.1437      2.1418      2.1403      2.1391      2.1384      2.1382      2.1384    
  2.1391      2.1403      2.1418      2.1437      2.1458      2.1479      2.1499      2.1516      2.1531      2.1541    
  2.1546      2.1544      2.1534      2.1517      2.1495      2.1468      2.1440      2.1411      2.1384      2.1361    
  2.1343      2.1331      2.1289      2.1294      2.1309      2.1333      2.1363      2.1397      2.1434      2.1471    
  2.1505      2.1535      2.1558      2.1573      2.1579      2.1577      2.1568      2.1553      2.1534      2.1511    
  2.1485      2.1460      2.1437      2.1419      2.1406      2.1398      2.1396      2.1398      2.1406      2.1419    
  2.1437      2.1460      2.1485      2.1511      2.1534      2.1553      2.1568      2.1577      2.1579      2.1573    
  2.1558      2.1535      2.1505      2.1471      2.1434      2.1397      2.1363      2.1333      2.1309      2.1294    
  2.1197      2.1204      2.1225      2.1259      2.1301      2.1350      2.1401      2.1452      2.1500      2.1540    
  2.1572      2.1594      2.1606      2.1609      2.1604      2.1591      2.1571      2.1545      2.1516      2.1485    
  2.1458      2.1436      2.1421      2.1412      2.1410      2.1412      2.1421      2.1436      2.1458      2.1485    
  2.1516      2.1545      2.1571      2.1591      2.1604      2.1609      2.1606      2.1594      2.1572      2.1540    
  2.1500      2.1452      2.1401      2.1350      2.1301      2.1259      2.1225      2.1204      2.1008      2.1019    
  2.1051      2.1101      2.1166      2.1239      2.1317      2.1393      2.1463      2.1523      2.1570      2.1604    
  2.1625      2.1634      2.1634      2.1624      2.1605      2.1578      2.1545      2.1511      2.1479      2.1453    
  2.1435      2.1426      2.1422      2.1426      2.1435      2.1453      2.1479      2.1511      2.1545      2.1578    
  2.1605      2.1624      2.1634      2.1634      2.1625      2.1604      2.1570      2.1523      2.1463      2.1393    
  2.1317      2.1239      2.1166      2.1101      2.1051      2.1019      2.0679      2.0695      2.0743      2.0819    
  2.0916      2.1029      2.1148      2.1266      2.1374      2.1467      2.1540      2.1593      2.1628      2.1648    
  2.1655      2.1649      2.1632      2.1605      2.1571      2.1534      2.1499      2.1470      2.1449      2.1437    
  2.1433      2.1437      2.1449      2.1470      2.1499      2.1534      2.1571      2.1605      2.1632      2.1649    
  2.1655      2.1648      2.1628      2.1593      2.1540      2.1467      2.1374      2.1266      2.1148      2.1029    
  2.0916      2.0819      2.0743      2.0695      2.0172      2.0195      2.0264      2.0373      2.0515      2.0681    
  2.0859      2.1037      2.1203      2.1347      2.1463      2.1549      2.1609      2.1645      2.1661      2.1662    
  2.1649      2.1624      2.1591      2.1553      2.1516      2.1484      2.1461      2.1446      2.1442      2.1446    
  2.1461      2.1484      2.1516      2.1553      2.1591      2.1624      2.1649      2.1662      2.1661      2.1645    
  2.1609      2.1549      2.1463      2.1347      2.1203      2.1037      2.0859      2.0681      2.0515      2.0373    
  2.0264      2.0195      1.9461      1.9493      1.9588      1.9739      1.9937      2.0169      2.0421      2.0677    
  2.0920      2.1136      2.1316      2.1455      2.1553      2.1616      2.1650      2.1661      2.1655      2.1634    
  2.1604      2.1568      2.1531      2.1497      2.1470      2.1453      2.1447      2.1453      2.1470      2.1497    
  2.1531      2.1568      2.1604      2.1634      2.1655      2.1661      2.1650      2.1616      2.1553      2.1455    
  2.1316      2.1136      2.0920      2.0677      2.0421      2.0169      1.9937      1.9739      1.9588      1.9493    
  1.8524      1.8567      1.8694      1.8896      1.9162      1.9476      1.9818      2.0168      2.0505      2.0814    
  2.1079      2.1291      2.1448      2.1554      2.1616      2.1645      2.1648      2.1634      2.1609      2.1577    
  2.1541      2.1507      2.1477      2.1458      2.1451      2.1458      2.1477      2.1507      2.1541      2.1577    
  2.1609      2.1634      2.1648      2.1645      2.1616      2.1554      2.1448      2.1291      2.1079      2.0814    
  2.0505      2.0168      1.9818      1.9476      1.9162      1.8896      1.8694      1.8567      1.7355      1.7410    
  1.7573      1.7835      1.8181      1.8589      1.9038      1.9501      1.9953      2.0371      2.0740      2.1045    
  2.1281      2.1448      2.1553      2.1609      2.1628      2.1625      2.1606      2.1579      2.1546      2.1512    
  2.1481      2.1460      2.1452      2.1460      2.1481      2.1512      2.1546      2.1579      2.1606      2.1625    
  2.1628      2.1609      2.1553      2.1448      2.1281      2.1045      2.0740      2.0371      1.9953      1.9501    
  1.9038      1.8589      1.8181      1.7835      1.7573      1.7410      1.5962      1.6031      1.6236      1.6566    
  1.7000      1.7516      1.8085      1.8677      1.9260      1.9807      2.0296      2.0712      2.1045      2.1291    
  2.1455      2.1549      2.1593      2.1604      2.1594      2.1573      2.1544      2.1512      2.1481      2.1459    
  2.1451      2.1459      2.1481      2.1512      2.1544      2.1573      2.1594      2.1604      2.1593      2.1549    
  2.1455      2.1291      2.1045      2.0712      2.0296      1.9807      1.9260      1.8677      1.8085      1.7516    
  1.7000      1.6566      1.6236      1.6031      1.4363      1.4449      1.4702      1.5107      1.5641      1.6276    
  1.6977      1.7710      1.8438      1.9130      1.9756      2.0296      2.0740      2.1079      2.1316      2.1463    
  2.1540      2.1570      2.1572      2.1558      2.1534      2.1505      2.1477      2.1455      2.1447      2.1455    
  2.1477      2.1505      2.1534      2.1558      2.1572      2.1570      2.1540      2.1463      2.1316      2.1079    
  2.0740      2.0296      1.9756      1.9130      1.8438      1.7710      1.6977      1.6276      1.5641      1.5107    
  1.4702      1.4449      1.2587      1.2691      1.2997      1.3486      1.4131      1.4896      1.5741      1.6626    
  1.7509      1.8355      1.9130      1.9807      2.0371      2.0814      2.1136      2.1347      2.1467      2.1523    
  2.1540      2.1535      2.1517      2.1493      2.1468      2.1449      2.1442      2.1449      2.1468      2.1493    
  2.1517      2.1535      2.1540      2.1523      2.1467      2.1347      2.1136      2.0814      2.0371      1.9807    
  1.9130      1.8355      1.7509      1.6626      1.5741      1.4896      1.4131      1.3486      1.2997      1.2691    
  1.0675      1.0798      1.1161      1.1742      1.2507      1.3413      1.4412      1.5458      1.6504      1.7509    
  1.8438      1.9260      1.9953      2.0505      2.0920      2.1203      2.1374      2.1463      2.1500      2.1505    
  2.1495      2.1476      2.1455      2.1439      2.1433      2.1439      2.1455      2.1476      2.1495      2.1505    
  2.1500      2.1463      2.1374      2.1203      2.0920      2.0505      1.9953      1.9260      1.8438      1.7509    
  1.6504      1.5458      1.4412      1.3413      1.2507      1.1742      1.1161      1.0798     0.86832     0.88272    
 0.92504     0.99271      1.0817      1.1871      1.3032      1.4245      1.5458      1.6626      1.7710      1.8677    
  1.9501      2.0168      2.0677      2.1037      2.1266      2.1393      2.1452      2.1471      2.1468      2.1455    
  2.1440      2.1427      2.1422      2.1427      2.1440      2.1455      2.1468      2.1471      2.1452      2.1393    
  2.1266      2.1037      2.0677      2.0168      1.9501      1.8677      1.7710      1.6626      1.5458      1.4245    
  1.3032      1.1871      1.0817     0.99271     0.92504     0.88272     0.66888     0.68531     0.73360     0.81084    
 0.91245      1.0327      1.1650      1.3032      1.4412      1.5741      1.6977      1.8085      1.9038      1.9818    
  2.0421      2.0859      2.1148      2.1317      2.1401      2.1434      2.1440      2.1433      2.1422      2.1413    
  2.1410      2.1413      2.1422      2.1433      2.1440      2.1434      2.1401      2.1317      2.1148      2.0859    
  2.0421      1.9818      1.9038      1.8085      1.6977      1.5741      1.4412      1.3032      1.1650      1.0327    
 0.91245     0.81084     0.73360     0.68531     0.47809     0.49644     0.55036     0.63663     0.75019     0.88460    
  1.0327      1.1871      1.3413      1.4896      1.6276      1.7516      1.8589      1.9476      2.0169      2.0681    
  2.1029      2.1239      2.1350      2.1397      2.1411      2.1409      2.1403      2.1398      2.1396      2.1398    
  2.1403      2.1409      2.1411      2.1397      2.1350      2.1239      2.1029      2.0681      2.0169      1.9476    
  1.8589      1.7516      1.6276      1.4896      1.3413      1.1871      1.0327     0.88460     0.75019     0.63663    
 0.55036     0.49644     0.30542     0.32546     0.38438     0.47872     0.60299     0.75019     0.91245      1.0817    
  1.2507      1.4131      1.5641      1.7000      1.8181      1.9162      1.9937      2.0515      2.0916      2.1166    
  2.1301      2.1363      2.1384      2.1388      2.1385      2.1383      2.1382      2.1383      2.1385      2.1388    
  2.1384      2.1363      2.1301      2.1166      2.0916      2.0515      1.9937      1.9162      1.8181      1.7000    
  1.5641      1.4131      1.2507      1.0817     0.91245     0.75019     0.60299     0.47872     0.38438     0.32546    
 0.15995     0.18141     0.24449     0.34553     0.47872     0.63663     0.81084     0.99271      1.1742      1.3486    
  1.5107      1.6566      1.7835      1.8896      1.9739      2.0373      2.0819      2.1101      2.1259      2.1333    
  2.1361      2.1368      2.1369      2.1369      2.1369      2.1369      2.1369      2.1368      2.1361      2.1333    
  2.1259      2.1101      2.0819      2.0373      1.9739      1.8896      1.7835      1.6566      1.5107      1.3486    
  1.1742     0.99271     0.81084     0.63663     0.47872     0.34553     0.24449     0.18141     0.49697E-01 0.72209E-01
 0.13842     0.24449     0.38438     0.55036     0.73360     0.92504      1.1161      1.2997      1.4702      1.6236    
  1.7573      1.8694      1.9588      2.0264      2.0743      2.1051      2.1225      2.1309      2.1343      2.1353    
  2.1357      2.1358      2.1359      2.1358      2.1357      2.1353      2.1343      2.1309      2.1225      2.1051    
  2.0743      2.0264      1.9588      1.8694      1.7573      1.6236      1.4702      1.2997      1.1161     0.92504    
 0.73360     0.55036     0.38438     0.24449     0.13842     0.72209E-01 -.19122E-01 0.40505E-02 0.72209E-01 0.18141    
 0.32546     0.49644     0.68531     0.88272      1.0798      1.2691      1.4449      1.6031      1.7410      1.8567    
  1.9493      2.0195      2.0695      2.1019      2.1204      2.1294      2.1331      2.1344      2.1349      2.1352    
  2.1353      2.1352      2.1349      2.1344      2.1331      2.1294      2.1204      2.1019      2.0695      2.0195    
  1.9493      1.8567      1.7410      1.6031      1.4449      1.2691      1.0798     0.88272     0.68531     0.49644    
 0.32546     0.18141     0.72209E-01 0.40505E-02 -.19122E-01 0.40505E-02 0.72209E-01 0.18141     0.32546     0.49644    
 0.68531     0.88272      1.0798      1.2691      1.4449      1.6031      1.7410      1.8567      1.9493      2.0195    
  2.0695      2.1019      2.1204      2.1294      2.1331      2.1344      2.1349      2.1352      2.1353      2.1352    
  2.1349      2.1344      2.1331      2.1294      2.1204      2.1019      2.0695      2.0195      1.9493      1.8567    
  1.7410      1.6031      1.4449      1.2691      1.0798     0.88272     0.68531     0.49644     0.32546     0.18141    
 0.72209E-01 0.40505E-02 0.40505E-02 0.27000E-01 0.94501E-01 0.20264     0.34529     0.51459     0.70157     0.89697    
  1.0920      1.2794      1.4534      1.6100      1.7465      1.8610      1.9525      2.0218      2.0712      2.1030    
  2.1211      2.1299      2.1335      2.1347      2.1352      2.1354      2.1355      2.1354      2.1352      2.1347    
  2.1335      2.1299      2.1211      2.1030      2.0712      2.0218      1.9525      1.8610      1.7465      1.6100    
  1.4534      1.2794      1.0920     0.89697     0.70157     0.51459     0.34529     0.20264     0.94501E-01 0.27000E-01
 0.72209E-01 0.94501E-01 0.16007     0.26511     0.40362     0.56795     0.74935     0.93884      1.1280      1.3097    
  1.4784      1.6304      1.7627      1.8735      1.9620      2.0287      2.0759      2.1062      2.1233      2.1315    
  2.1347      2.1357      2.1360      2.1361      2.1361      2.1361      2.1360      2.1357      2.1347      2.1315    
  2.1233      2.1062      2.0759      2.0287      1.9620      1.8735      1.7627      1.6304      1.4784      1.3097    
  1.1280     0.93884     0.74935     0.56795     0.40362     0.26511     0.16007     0.94501E-01 0.18141     0.20264    