unknown system                          
   1.0000000000000000     
     4.282000    0.000000    0.000000
     0.000000    4.282000    0.000000
     0.000000    0.000000    4.282000
   Na
     2
Direct
  0.000000  0.000000  0.000000
  0.500000  0.500000  0.500000

   48   48   48
 -.65831090015E-01 -.41295354046E-01 0.30656434692E-01 0.14528681484E+00 0.29540074720E+00
 0.47220295569E+00 0.66619088079E+00 0.86793977843E+00 0.10687345823E+01 0.12610597523E+01
 0.14389363885E+01 0.15980587873E+01 0.17357216960E+01 0.18506374682E+01 0.19428051337E+01
 0.20135137170E+01 0.20651629245E+01 0.20997747455E+01 0.21201030446E+01 0.21299605114E+01
 0.21333104647E+01 0.21334476850E+01 0.21325629577E+01 0.21317753239E+01 0.21314866733E+01
 0.21317753239E+01 0.21325629577E+01 0.21334476850E+01 0.21333104647E+01 0.21299605114E+01
 0.21201030446E+01 0.20997747455E+01 0.20651629245E+01 0.20135137170E+01 0.19428051337E+01
 0.18506374682E+01 0.17357216960E+01 0.15980587873E+01 0.14389363885E+01 0.12610597523E+01
 0.10687345823E+01 0.86793977843E+00 0.66619088079E+00 0.47220295569E+00 0.29540074720E+00
 0.14528681484E+00 0.30656434692E-01 -.41295354046E-01 -.41295354046E-01 -.17035293024E-01
 0.54113403350E-01 0.16747975665E+00 0.31596388469E+00 0.49087678852E+00 0.68281900396E+00
 0.88245907334E+00 0.10811651483E+01 0.12714951102E+01 0.14475296100E+01 0.16050021014E+01
 0.17412234564E+01 0.18549051593E+01 0.19460399880E+01 0.20159140915E+01 0.20668994577E+01
 0.21009757905E+01 0.21209121042E+01 0.21305120603E+01 0.21337094050E+01 0.21337626413E+01
 0.21328328923E+01 0.21320222520E+01 0.21317263218E+01 0.21320222520E+01 0.21328328923E+01
 0.21337626413E+01 0.21337094050E+01 0.21305120603E+01 0.21209121042E+01 0.21009757905E+01
 0.20668994577E+01 0.20159140915E+01 0.19460399880E+01 0.18549051593E+01 0.17412234564E+01
 0.16050021014E+01 0.14475296100E+01 0.12714951102E+01 0.10811651483E+01 0.88245907334E+00
 0.68281900396E+00 0.49087678852E+00 0.31596388469E+00 0.16747975665E+00 0.54113403350E-01
 -.17035293024E-01 0.30656434692E-01 0.54113403350E-01 0.12292143767E+00 0.23260052131E+00
 0.37632448096E+00 0.54571139591E+00 0.73166204629E+00 0.92511937493E+00 0.11176980447E+01
 0.13021729310E+01 0.14727990770E+01 0.16254230791E+01 0.17574022531E+01 0.18674470824E+01
 0.19555358974E+01 0.20229506740E+01 0.20719701244E+01 0.21044655554E+01 0.21232510524E+01
 0.21320995798E+01 0.21348542987E+01 0.21346649757E+01 0.21336051088E+01 0.21327276041E+01
 0.21324104100E+01 0.21327276041E+01 0.21336051088E+01 0.21346649757E+01 0.21348542987E+01
 0.21320995798E+01 0.21232510524E+01 0.21044655554E+01 0.20719701244E+01 0.20229506740E+01
 0.19555358974E+01 0.18674470824E+01 0.17574022531E+01 0.16254230791E+01 0.14727990770E+01
 0.13021729310E+01 0.11176980447E+01 0.92511937493E+00 0.73166204629E+00 0.54571139591E+00
 0.37632448096E+00 0.23260052131E+00 0.12292143767E+00 0.54113403350E-01 0.14528681484E+00
 0.16747975665E+00 0.23260052131E+00 0.33646113535E+00 0.47265589807E+00 0.63327912562E+00
 0.80970463209E+00 0.99331567416E+00 0.11761266628E+01 0.13512624666E+01 0.15132541217E+01
 0.16581232868E+01 0.17832993097E+01 0.18874970241E+01 0.19706842823E+01 0.20341490584E+01
 0.20799762490E+01 0.21099252262E+01 0.21268769169E+01 0.21345417210E+01 0.21366066424E+01
 0.21360415152E+01 0.21347789875E+01 0.21337957989E+01 0.21334446022E+01 0.21337957989E+01
 0.21347789875E+01 0.21360415152E+01 0.21366066424E+01 0.21345417210E+01 0.21268769169E+01
 0.21099252262E+01 0.20799762490E+01 0.20341490584E+01 0.19706842823E+01 0.18874970241E+01
 0.17832993097E+01 0.16581232868E+01 0.15132541217E+01 0.13512624666E+01 0.11761266628E+01
 0.99331567416E+00 0.80970463209E+00 0.63327912562E+00 0.47265589807E+00 0.33646113535E+00
 0.23260052131E+00 0.16747975665E+00 0.29540074720E+00 0.31596388469E+00 0.37632448096E+00
 0.47265589807E+00 0.59907694370E+00 0.74828519881E+00 0.91226726393E+00 0.10829897281E+01
 0.12530016245E+01 0.14158906257E+01 0.15665432060E+01 0.17012008893E+01 0.18173865942E+01
 0.19138353871E+01 0.19905264603E+01 0.20487656579E+01 0.20903064112E+01 0.21168841467E+01
 0.21314454477E+01 0.21375914942E+01 0.21387830623E+01 0.21377436136E+01 0.21362211442E+01
 0.21350985038E+01 0.21347015550E+01 0.21350985038E+01 0.21362211442E+01 0.21377436136E+01
 0.21387830623E+01 0.21375914942E+01 0.21314454477E+01 0.21168841467E+01 0.20903064112E+01
 0.20487656579E+01 0.19905264603E+01 0.19138353871E+01 0.18173865942E+01 0.17012008893E+01
 0.15665432060E+01 0.14158906257E+01 0.12530016245E+01 0.10829897281E+01 0.91226726393E+00
 0.74828519880E+00 0.59907694370E+00 0.47265589807E+00 0.37632448096E+00 0.31596388469E+00
 0.47220295569E+00 0.49087678852E+00 0.54571139591E+00 0.63327912562E+00 0.74828519881E+00
 0.88411554006E+00 0.10334738920E+01 0.11890236799E+01 0.13439545152E+01 0.14923986810E+01
 0.16296488236E+01 0.17521941807E+01 0.18576740540E+01 0.19448759401E+01 0.20138316188E+01
 0.20658280232E+01 0.21021966965E+01 0.21247829209E+01 0.21365699312E+01 0.21409870987E+01
 0.21411980391E+01 0.21396239039E+01 0.21377988713E+01 0.21365067423E+01 0.21360527198E+01
 0.21365067423E+01 0.21377988713E+01 0.21396239039E+01 0.21411980391E+01 0.21409870987E+01
 0.21365699312E+01 0.21247829209E+01 0.21021966965E+01 0.20658280232E+01 0.20138316188E+01
 0.19448759401E+01 0.18576740540E+01 0.17521941807E+01 0.16296488236E+01 0.14923986810E+01
 0.13439545152E+01 0.11890236799E+01 0.10334738920E+01 0.88411554006E+00 0.74828519880E+00
 0.63327912562E+00 0.54571139591E+00 0.49087678852E+00 0.66619088080E+00 0.68281900396E+00
 0.73166204629E+00 0.80970463209E+00 0.91226726393E+00 0.10334738920E+01 0.11668144713E+01
 0.13057258332E+01 0.14441042521E+01 0.15766692694E+01 0.16991414886E+01 0.18082758568E+01
 0.19018610101E+01 0.19787892438E+01 0.20392011711E+01 0.20841999883E+01 0.21147937124E+01
 0.21330279679E+01 0.21418633176E+01 0.21444824059E+01 0.21436868603E+01 0.21415566759E+01
 0.21394015016E+01 0.21379143283E+01 0.21373927508E+01 0.21379143283E+01 0.21394015016E+01
 0.21415566759E+01 0.21436868603E+01 0.21444824059E+01 0.21418633176E+01 0.21330279679E+01
 0.21147937124E+01 0.20841999883E+01 0.20392011711E+01 0.19787892438E+01 0.19018610101E+01
 0.18082758568E+01 0.16991414886E+01 0.15766692694E+01 0.14441042521E+01 0.13057258332E+01
 0.11668144713E+01 0.10334738920E+01 0.91226726393E+00 0.80970463209E+00 0.73166204629E+00
 0.68281900396E+00 0.86793977843E+00 0.88245907334E+00 0.92511937493E+00 0.99331567416E+00
 0.10829897281E+01 0.11890236799E+01 0.13057258332E+01 0.14273389143E+01 0.15484853835E+01
 0.16644758943E+01 0.17714606257E+01 0.18664808833E+01 0.19475256718E+01 0.20136624411E+01
 0.20651625262E+01 0.21026677478E+01 0.21272224246E+01 0.21410359043E+01 0.21469601818E+01
 0.21478528596E+01 0.21461039918E+01 0.21434361332E+01 0.21409426917E+01 0.21392445147E+01
 0.21386479642E+01 0.21392445147E+01 0.21409426917E+01 0.21434361332E+01 0.21461039918E+01
 0.21478528596E+01 0.21469601818E+01 0.21410359043E+01 0.21272224246E+01 0.21026677478E+01
 0.20651625262E+01 0.20136624411E+01 0.19475256718E+01 0.18664808833E+01 0.17714606257E+01
 0.16644758943E+01 0.15484853835E+01 0.14273389143E+01 0.13057258332E+01 0.11890236799E+01
 0.10829897281E+01 0.99331567416E+00 0.92511937493E+00 0.88245907334E+00 0.10687345823E+01
 0.10811651483E+01 0.11176980447E+01 0.11761266628E+01 0.12530016245E+01 0.13439545152E+01
 0.14441042521E+01 0.15484853835E+01 0.16524231554E+01 0.17517962390E+01 0.18431819019E+01
 0.19239428846E+01 0.19923381898E+01 0.20476868911E+01 0.20901679689E+01 0.21200540807E+01
 0.21386668530E+01 0.21482785067E+01 0.21515317707E+01 0.21508908932E+01 0.21483094469E+01
 0.21451615625E+01 0.21423483366E+01 0.21404410809E+01 0.21397687418E+01 0.21404410809E+01
 0.21423483366E+01 0.21451615625E+01 0.21483094469E+01 0.21508908932E+01 0.21515317707E+01
 0.21482785067E+01 0.21386668530E+01 0.21200540807E+01 0.20901679689E+01 0.20476868911E+01
 0.19923381898E+01 0.19239428846E+01 0.18431819019E+01 0.17517962390E+01 0.16524231554E+01
 0.15484853835E+01 0.14441042521E+01 0.13439545152E+01 0.12530016245E+01 0.11761266628E+01
 0.11176980447E+01 0.10811651483E+01 0.12610597523E+01 0.12714951102E+01 0.13021729310E+01
 0.13512624666E+01 0.14158906257E+01 0.14923986810E+01 0.15766692694E+01 0.16644758943E+01
 0.17517962390E+01 0.18350469039E+01 0.19112411062E+01 0.19781153910E+01 0.20342749460E+01
 0.20792552119E+01 0.21127976641E+01 0.21353526372E+01 0.21484621101E+01 0.21543352648E+01
 0.21553084591E+01 0.21534093432E+01 0.21501620779E+01 0.21466258700E+01 0.21435428201E+01
 0.21414533679E+01 0.21407141477E+01 0.21414533679E+01 0.21435428201E+01 0.21466258700E+01
 0.21501620779E+01 0.21534093432E+01 0.21553084591E+01 0.21543352648E+01 0.21484621101E+01
 0.21353526372E+01 0.21127976641E+01 0.20792552119E+01 0.20342749460E+01 0.19781153910E+01
 0.19112411062E+01 0.18350469039E+01 0.17517962390E+01 0.16644758943E+01 0.15766692694E+01
 0.14923986810E+01 0.14158906257E+01 0.13512624666E+01 0.13021729310E+01 0.12714951102E+01
 0.14389363885E+01 0.14475296100E+01 0.14727990770E+01 0.15132541217E+01 0.15665432060E+01
 0.16296488236E+01 0.16991414886E+01 0.17714606257E+01 0.18431819019E+01 0.19112411062E+01
 0.19731126348E+01 0.20269648375E+01 0.20717784175E+01 0.21068576592E+01 0.21319522560E+01
 0.21478522820E+01 0.21561768155E+01 0.21589434772E+01 0.21581093212E+01 0.21552594932E+01
 0.21515302954E+01 0.21477194915E+01 0.21444457585E+01 0.21422271188E+01 0.21414404510E+01
 0.21422271188E+01 0.21444457585E+01 0.21477194915E+01 0.21515302954E+01 0.21552594932E+01
 0.21581093212E+01 0.21589434772E+01 0.21561768155E+01 0.21478522820E+01 0.21319522560E+01
 0.21068576592E+01 0.20717784175E+01 0.20269648375E+01 0.19731126348E+01 0.19112411062E+01
 0.18431819019E+01 0.17714606257E+01 0.16991414886E+01 0.16296488236E+01 0.15665432060E+01
 0.15132541217E+01 0.14727990770E+01 0.14475296100E+01 0.15980587873E+01 0.16050021014E+01
 0.16254230791E+01 0.16581232868E+01 0.17012008893E+01 0.17521941807E+01 0.18082758568E+01
 0.18664808833E+01 0.19239428846E+01 0.19781153910E+01 0.20269648375E+01 0.20691136178E+01
 0.21034998253E+01 0.21294000447E+01 0.21469743504E+01 0.21572105022E+01 0.21616528852E+01
 0.21620216075E+01 0.21598621467E+01 0.21563532692E+01 0.21523149952E+01 0.21483492460E+01
 0.21449830242E+01 0.21427079318E+01 0.21419014679E+01 0.21427079318E+01 0.21449830242E+01
 0.21483492460E+01 0.21523149952E+01 0.21563532692E+01 0.21598621467E+01 0.21620216075E+01
 0.21616528852E+01 0.21572105022E+01 0.21469743504E+01 0.21294000447E+01 0.21034998253E+01
 0.20691136178E+01 0.20269648375E+01 0.19781153910E+01 0.19239428846E+01 0.18664808833E+01
 0.18082758568E+01 0.17521941807E+01 0.17012008893E+01 0.16581232868E+01 0.16254230791E+01
 0.16050021014E+01 0.17357216960E+01 0.17412234564E+01 0.17574022531E+01 0.17832993097E+01
 0.18173865942E+01 0.18576740540E+01 0.19018610101E+01 0.19475256718E+01 0.19923381898E+01
 0.20342749460E+01 0.20717784175E+01 0.21034998253E+01 0.21284510352E+01 0.21463637502E+01
 0.21576879724E+01 0.21634469350E+01 0.21649796319E+01 0.21636460636E+01 0.21605952231E+01
 0.21566717728E+01 0.21524690870E+01 0.21484605711E+01 0.21451054851E+01 0.21428549301E+01
 0.21420599568E+01 0.21428549301E+01 0.21451054851E+01 0.21484605711E+01 0.21524690870E+01
 0.21566717728E+01 0.21605952231E+01 0.21636460636E+01 0.21649796319E+01 0.21634469350E+01
 0.21576879724E+01 0.21463637502E+01 0.21284510352E+01 0.21034998253E+01 0.20717784175E+01
 0.20342749460E+01 0.19923381898E+01 0.19475256718E+01 0.19018610101E+01 0.18576740540E+01
 0.18173865942E+01 0.17832993097E+01 0.17574022531E+01 0.17412234564E+01 0.18506374682E+01
 0.18549051593E+01 0.18674470824E+01 0.18874970241E+01 0.19138353871E+01 0.19448759401E+01
 0.19787892438E+01 0.20136624411E+01 0.20476868911E+01 0.20792552119E+01 0.21068576592E+01
 0.21294000447E+01 0.21463637502E+01 0.21578202856E+01 0.21643467352E+01 0.21668598289E+01
 0.21664092189E+01 0.21639857562E+01 0.21603987724E+01 0.21562514246E+01 0.21520007782E+01
 0.21480495370E+01 0.21448035773E+01 0.21426550465E+01 0.21419014679E+01 0.21426550465E+01
 0.21448035773E+01 0.21480495370E+01 0.21520007782E+01 0.21562514246E+01 0.21603987724E+01
 0.21639857562E+01 0.21664092189E+01 0.21668598289E+01 0.21643467352E+01 0.21578202856E+01
 0.21463637502E+01 0.21294000447E+01 0.21068576592E+01 0.20792552119E+01 0.20476868911E+01
 0.20136624411E+01 0.19787892438E+01 0.19448759401E+01 0.19138353871E+01 0.18874970241E+01
 0.18674470824E+01 0.18549051593E+01 0.19428051337E+01 0.19460399880E+01 0.19555358974E+01
 0.19706842823E+01 0.19905264603E+01 0.20138316188E+01 0.20392011711E+01 0.20651625262E+01
 0.20901679689E+01 0.21127976641E+01 0.21319522560E+01 0.21469743504E+01 0.21576879724E+01
 0.21643467352E+01 0.21675119260E+01 0.21679013403E+01 0.21662518352E+01 0.21632263149E+01
 0.21593769110E+01 0.21551571115E+01 0.21509607630E+01 0.21471588237E+01 0.21441088727E+01
 0.21421279617E+01 0.21414404510E+01 0.21421279617E+01 0.21441088727E+01 0.21471588237E+01
 0.21509607630E+01 0.21551571115E+01 0.21593769110E+01 0.21632263149E+01 0.21662518352E+01
 0.21679013403E+01 0.21675119260E+01 0.21643467352E+01 0.21576879724E+01 0.21469743504E+01
 0.21319522560E+01 0.21127976641E+01 0.20901679689E+01 0.20651625262E+01 0.20392011711E+01
 0.20138316188E+01 0.19905264603E+01 0.19706842823E+01 0.19555358974E+01 0.19460399880E+01
 0.20135137170E+01 0.20159140915E+01 0.20229506740E+01 0.20341490584E+01 0.20487656579E+01
 0.20658280232E+01 0.20841999883E+01 0.21026677478E+01 0.21200540807E+01 0.21353526372E+01
 0.21478522820E+01 0.21572105022E+01 0.21634469350E+01 0.21668598289E+01 0.21679013403E+01
 0.21670616370E+01 0.21647991783E+01 0.21615249768E+01 0.21576211328E+01 0.21534633552E+01
 0.21494256116E+01 0.21458629090E+01 0.21430826296E+01 0.21413183672E+01 0.21407141477E+01
 0.21413183672E+01 0.21430826296E+01 0.21458629090E+01 0.21494256116E+01 0.21534633552E+01
 0.21576211328E+01 0.21615249768E+01 0.21647991783E+01 0.21670616370E+01 0.21679013403E+01
 0.21668598289E+01 0.21634469350E+01 0.21572105022E+01 0.21478522820E+01 0.21353526372E+01
 0.21200540807E+01 0.21026677478E+01 0.20841999883E+01 0.20658280232E+01 0.20487656579E+01
 0.20341490584E+01 0.20229506740E+01 0.20159140915E+01 0.20651629245E+01 0.20668994577E+01
 0.20719701244E+01 0.20799762490E+01 0.20903064112E+01 0.21021966965E+01 0.21147937124E+01
 0.21272224246E+01 0.21386668530E+01 0.21484621101E+01 0.21561768155E+01 0.21616528852E+01
 0.21649796319E+01 0.21664092189E+01 0.21662518352E+01 0.21647991783E+01 0.21623054483E+01
 0.21590183587E+01 0.21552231019E+01 0.21512588555E+01 0.21474908477E+01 0.21442535503E+01
 0.21417994358E+01 0.21402810657E+01 0.21397687418E+01 0.21402810657E+01 0.21417994358E+01
 0.21442535503E+01 0.21474908477E+01 0.21512588555E+01 0.21552231019E+01 0.21590183587E+01
 0.21623054483E+01 0.21647991783E+01 0.21662518352E+01 0.21664092189E+01 0.21649796319E+01
 0.21616528852E+01 0.21561768155E+01 0.21484621101E+01 0.21386668530E+01 0.21272224246E+01
 0.21147937124E+01 0.21021966965E+01 0.20903064112E+01 0.20799762490E+01 0.20719701244E+01
 0.20668994577E+01 0.20997747455E+01 0.21009757905E+01 0.21044655554E+01 0.21099252262E+01
 0.21168841467E+01 0.21247829209E+01 0.21330279679E+01 0.21410359043E+01 0.21482785067E+01
 0.21543352648E+01 0.21589434772E+01 0.21620216075E+01 0.21636460636E+01 0.21639857562E+01
 0.21632263149E+01 0.21615249768E+01 0.21590183587E+01 0.21558698334E+01 0.21523157232E+01
 0.21486700581E+01 0.21452765296E+01 0.21424333696E+01 0.21403359216E+01 0.21390692121E+01
 0.21386479642E+01 0.21390692121E+01 0.21403359216E+01 0.21424333696E+01 0.21452765296E+01
 0.21486700581E+01 0.21523157232E+01 0.21558698334E+01 0.21590183587E+01 0.21615249768E+01
 0.21632263149E+01 0.21639857562E+01 0.21636460636E+01 0.21620216075E+01 0.21589434772E+01
 0.21543352648E+01 0.21482785067E+01 0.21410359043E+01 0.21330279679E+01 0.21247829209E+01
 0.21168841467E+01 0.21099252262E+01 0.21044655554E+01 0.21009757905E+01 0.21201030446E+01
 0.21209121042E+01 0.21232510524E+01 0.21268769169E+01 0.21314454477E+01 0.21365699312E+01
 0.21418633176E+01 0.21469601818E+01 0.21515317707E+01 0.21553084591E+01 0.21581093212E+01
 0.21598621467E+01 0.21605952231E+01 0.21603987724E+01 0.21593769110E+01 0.21576211328E+01
 0.21552231019E+01 0.21523157232E+01 0.21491081349E+01 0.21458810134E+01 0.21429347178E+01
 0.21405164631E+01 0.21387694218E+01 0.21377334731E+01 0.21373927508E+01 0.21377334731E+01
 0.21387694218E+01 0.21405164631E+01 0.21429347178E+01 0.21458810134E+01 0.21491081349E+01
 0.21523157232E+01 0.21552231019E+01 0.21576211328E+01 0.21593769110E+01 0.21603987724E+01
 0.21605952231E+01 0.21598621467E+01 0.21581093212E+01 0.21553084591E+01 0.21515317707E+01
 0.21469601818E+01 0.21418633176E+01 0.21365699312E+01 0.21314454477E+01 0.21268769169E+01
 0.21232510524E+01 0.21209121042E+01 0.21299605114E+01 0.21305120603E+01 0.21320995798E+01
 0.21345417210E+01 0.21375914942E+01 0.21409870987E+01 0.21444824059E+01 0.21478528596E+01
 0.21508908932E+01 0.21534093432E+01 0.21552594932E+01 0.21563532692E+01 0.21566717728E+01
 0.21562514246E+01 0.21551571115E+01 0.21534633552E+01 0.21512588555E+01 0.21486700581E+01
 0.21458810134E+01 0.21431252462E+01 0.21406436824E+01 0.21386281911E+01 0.21371837099E+01
 0.21363320001E+01 0.21360527198E+01 0.21363320001E+01 0.21371837099E+01 0.21386281911E+01
 0.21406436824E+01 0.21431252462E+01 0.21458810134E+01 0.21486700581E+01 0.21512588555E+01
 0.21534633552E+01 0.21551571115E+01 0.21562514246E+01 0.21566717728E+01 0.21563532692E+01
 0.21552594932E+01 0.21534093432E+01 0.21508908932E+01 0.21478528596E+01 0.21444824059E+01
 0.21409870987E+01 0.21375914942E+01 0.21345417210E+01 0.21320995798E+01 0.21305120603E+01
 0.21333104647E+01 0.21337094050E+01 0.21348542987E+01 0.21366066424E+01 0.21387830623E+01
 0.21411980391E+01 0.21436868603E+01 0.21461039918E+01 0.21483094469E+01 0.21501620779E+01
 0.21515302954E+01 0.21523149952E+01 0.21524690870E+01 0.21520007782E+01 0.21509607630E+01
 0.21494256116E+01 0.21474908477E+01 0.21452765296E+01 0.21429347178E+01 0.21406436824E+01
 0.21385826930E+01 0.21368971888E+01 0.21356742116E+01 0.21349433514E+01 0.21347015550E+01
 0.21349433514E+01 0.21356742116E+01 0.21368971888E+01 0.21385826930E+01 0.21406436824E+01
 0.21429347178E+01 0.21452765296E+01 0.21474908477E+01 0.21494256116E+01 0.21509607630E+01
 0.21520007782E+01 0.21524690870E+01 0.21523149952E+01 0.21515302954E+01 0.21501620779E+01
 0.21483094469E+01 0.21461039918E+01 0.21436868603E+01 0.21411980391E+01 0.21387830623E+01
 0.21366066424E+01 0.21348542987E+01 0.21337094050E+01 0.21334476850E+01 0.21337626413E+01
 0.21346649757E+01 0.21360415152E+01 0.21377436136E+01 0.21396239039E+01 0.21415566759E+01
 0.21434361332E+01 0.21451615625E+01 0.21466258700E+01 0.21477194915E+01 0.21483492460E+01
 0.21484605711E+01 0.21480495370E+01 0.21471588237E+01 0.21458629090E+01 0.21442535503E+01
 0.21424333696E+01 0.21405164631E+01 0.21386281911E+01 0.21368971888E+01 0.21354400252E+01
 0.21343462000E+01 0.21336719182E+01 0.21334446022E+01 0.21336719182E+01 0.21343462000E+01
 0.21354400252E+01 0.21368971888E+01 0.21386281911E+01 0.21405164631E+01 0.21424333696E+01
 0.21442535503E+01 0.21458629090E+01 0.21471588237E+01 0.21480495370E+01 0.21484605711E+01
 0.21483492460E+01 0.21477194915E+01 0.21466258700E+01 0.21451615625E+01 0.21434361332E+01
 0.21415566759E+01 0.21396239039E+01 0.21377436136E+01 0.21360415152E+01 0.21346649757E+01
 0.21337626413E+01 0.21325629577E+01 0.21328328923E+01 0.21336051088E+01 0.21347789875E+01
 0.21362211442E+01 0.21377988713E+01 0.21394015016E+01 0.21409426917E+01 0.21423483366E+01
 0.21435428201E+01 0.21444457585E+01 0.21449830242E+01 0.21451054851E+01 0.21448035773E+01
 0.21441088727E+01 0.21430826296E+01 0.21417994358E+01 0.21403359216E+01 0.21387694218E+01
 0.21371837099E+01 0.21356742116E+01 0.21343462000E+01 0.21333046337E+01 0.21326392688E+01
 0.21324104100E+01 0.21326392688E+01 0.21333046337E+01 0.21343462000E+01 0.21356742116E+01
 0.21371837099E+01 0.21387694218E+01 0.21403359216E+01 0.21417994358E+01 0.21430826296E+01
 0.21441088727E+01 0.21448035773E+01 0.21451054851E+01 0.21449830242E+01 0.21444457585E+01
 0.21435428201E+01 0.21423483366E+01 0.21409426917E+01 0.21394015016E+01 0.21377988713E+01
 0.21362211442E+01 0.21347789875E+01 0.21336051088E+01 0.21328328923E+01 0.21317753239E+01
 0.21320222520E+01 0.21327276041E+01 0.21337957989E+01 0.21350985038E+01 0.21365067423E+01
 0.21379143283E+01 0.21392445147E+01 0.21404410809E+01 0.21414533679E+01 0.21422271188E+01
 0.21427079318E+01 0.21428549301E+01 0.21426550465E+01 0.21421279617E+01 0.21413183672E+01
 0.21402810657E+01 0.21390692121E+01 0.21377334731E+01 0.21363320001E+01 0.21349433514E+01
 0.21336719182E+01 0.21326392688E+01 0.21319623581E+01 0.21317263218E+01 0.21319623581E+01
 0.21326392688E+01 0.21336719182E+01 0.21349433514E+01 0.21363320001E+01 0.21377334731E+01
 0.21390692121E+01 0.21402810657E+01 0.21413183672E+01 0.21421279617E+01 0.21426550465E+01
 0.21428549301E+01 0.21427079318E+01 0.21422271188E+01 0.21414533679E+01 0.21404410809E+01
 0.21392445147E+01 0.21379143283E+01 0.21365067423E+01 0.21350985038E+01 0.21337957989E+01
 0.21327276041E+01 0.21320222520E+01 0.21314866733E+01 0.21317263218E+01 0.21324104100E+01
 0.21334446022E+01 0.21347015550E+01 0.21360527198E+01 0.21373927508E+01 0.21386479642E+01
 0.21397687418E+01 0.21407141477E+01 0.21414404510E+01 0.21419014679E+01 0.21420599568E+01
 0.21419014679E+01 0.21414404510E+01 0.21407141477E+01 0.21397687418E+01 0.21386479642E+01
 0.21373927508E+01 0.21360527198E+01 0.21347015550E+01 0.21334446022E+01 0.21324104100E+01
 0.21317263218E+01 0.21314866733E+01 0.21317263218E+01 0.21324104100E+01 0.21334446022E+01
 0.21347015550E+01 0.21360527198E+01 0.21373927508E+01 0.21386479642E+01 0.21397687418E+01
 0.21407141477E+01 0.21414404510E+01 0.21419014679E+01 0.21420599568E+01 0.21419014679E+01
 0.21414404510E+01 0.21407141477E+01 0.21397687418E+01 0.21386479642E+01 0.21373927508E+01
 0.21360527198E+01 0.21347015550E+01 0.21334446022E+01 0.21324104100E+01 0.21317263218E+01
 0.21317753239E+01 0.21320222520E+01 0.21327276041E+01 0.21337957989E+01 0.21350985038E+01
 0.21365067423E+01 0.21379143283E+01 0.21392445147E+01 0.21404410809E+01 0.21414533679E+01
 0.21422271188E+01 0.21427079318E+01 0.21428549301E+01 0.21426550465E+01 0.21421279617E+01
 0.21413183672E+01 0.21402810657E+01 0.21390692121E+01 0.21377334731E+01 0.21363320001E+01
 0.21349433514E+01 0.21336719182E+01 0.21326392688E+01 0.21319623581E+01 0.21317263218E+01
 0.21319623581E+01 0.21326392688E+01 0.21336719182E+01 0.21349433514E+01 0.21363320001E+01
 0.21377334731E+01 0.21390692121E+01 0.21402810657E+01 0.21413183672E+01 0.21421279617E+01
 0.21426550465E+01 0.21428549301E+01 0.21427079318E+01 0.21422271188E+01 0.21414533679E+01
 0.21404410809E+01 0.21392445147E+01 0.21379143283E+01 0.21365067423E+01 0.21350985038E+01
 0.21337957989E+01 0.21327276041E+01 0.21320222520E+01 0.21325629577E+01 0.21328328923E+01
 0.21336051088E+01 0.21347789875E+01 0.21362211442E+01 0.21377988713E+01 0.21394015016E+01
 0.21409426917E+01 0.21423483366E+01 0.21435428201E+01 0.21444457585E+01 0.21449830242E+01
 0.21451054851E+01 0.21448035773E+01 0.21441088727E+01 0.21430826296E+01 0.21417994358E+01
 0.21403359216E+01 0.21387694218E+01 0.21371837099E+01 0.21356742116E+01 0.21343462000E+01
 0.21333046337E+01 0.21326392688E+01 0.21324104100E+01 0.21326392688E+01 0.21333046337E+01
 0.21343462000E+01 0.21356742116E+01 0.21371837099E+01 0.21387694218E+01 0.21403359216E+01
 0.21417994358E+01 0.21430826296E+01 0.21441088727E+01 0.21448035773E+01 0.21451054851E+01
 0.21449830242E+01 0.21444457585E+01 0.21435428201E+01 0.21423483366E+01 0.21409426917E+01
 0.21394015016E+01 0.21377988713E+01 0.21362211442E+01 0.21347789875E+01 0.21336051088E+01
 0.21328328923E+01 0.21334476850E+01 0.21337626413E+01 0.21346649757E+01 0.21360415152E+01
 0.21377436136E+01 0.21396239039E+01 0.21415566759E+01 0.21434361332E+01 0.21451615625E+01
 0.21466258700E+01 0.21477194915E+01 0.21483492460E+01 0.21484605711E+01 0.21480495370E+01
 0.21471588237E+01 0.21458629090E+01 0.21442535503E+01 0.21424333696E+01 0.21405164631E+01
 0.21386281911E+01 0.21368971888E+01 0.21354400252E+01 0.21343462000E+01 0.21336719182E+01
 0.21334446022E+01 0.21336719182E+01 0.21343462000E+01 0.21354400252E+01 0.21368971888E+01
 0.21386281911E+01 0.21405164631E+01 0.21424333696E+01 0.21442535503E+01 0.21458629090E+01
 0.21471588237E+01 0.21480495370E+01 0.21484605711E+01 0.21483492460E+01 0.21477194915E+01
 0.21466258700E+01 0.21451615625E+01 0.21434361332E+01 0.21415566759E+01 0.21396239039E+01
 0.21377436136E+01 0.21360415152E+01 0.21346649757E+01 0.21337626413E+01 0.21333104647E+01
 0.21337094050E+01 0.21348542987E+01 0.21366066424E+01 0.21387830623E+01 0.21411980391E+01
 0.21436868603E+01 0.21461039918E+01 0.21483094469E+01 0.21501620779E+01 0.21515302954E+01
 0.21523149952E+01 0.21524690870E+01 0.21520007782E+01 0.21509607630E+01 0.21494256116E+01
 0.21474908477E+01 0.21452765296E+01 0.21429347178E+01 0.21406436824E+01 0.21385826930E+01
 0.21368971888E+01 0.21356742116E+01 0.21349433514E+01 0.21347015550E+01 0.21349433514E+01
 0.21356742116E+01 0.21368971888E+01 0.21385826930E+01 0.21406436824E+01 0.21429347178E+01
 0.21452765296E+01 0.21474908477E+01 0.21494256116E+01 0.21509607630E+01 0.21520007782E+01
 0.21524690870E+01 0.21523149952E+01 0.21515302954E+01 0.21501620779E+01 0.21483094469E+01
 0.21461039918E+01 0.21436868603E+01 0.21411980391E+01 0.21387830623E+01 0.21366066424E+01
 0.21348542987E+01 0.21337094050E+01 0.21299605114E+01 0.21305120603E+01 0.21320995798E+01
 0.21345417210E+01 0.21375914942E+01 0.21409870987E+01 0.21444824059E+01 0.21478528596E+01
 0.21508908932E+01 0.21534093432E+01 0.21552594932E+01 0.21563532692E+01 0.21566717728E+01
 0.21562514246E+01 0.21551571115E+01 0.21534633552E+01 0.21512588555E+01 0.21486700581E+01
 0.21458810134E+01 0.21431252462E+01 0.21406436824E+01 0.21386281911E+01 0.21371837099E+01
 0.21363320001E+01 0.21360527198E+01 0.21363320001E+01 0.21371837099E+01 0.21386281911E+01
 0.21406436824E+01 0.21431252462E+01 0.21458810134E+01 0.21486700581E+01 0.21512588555E+01
 0.21534633552E+01 0.21551571115E+01 0.21562514246E+01 0.21566717728E+01 0.21563532692E+01
 0.21552594932E+01 0.21534093432E+01 0.21508908932E+01 0.21478528596E+01 0.21444824059E+01
 0.21409870987E+01 0.21375914942E+01 0.21345417210E+01 0.21320995798E+01 0.21305120603E+01
 0.21201030446E+01 0.21209121042E+01 0.21232510524E+01 0.21268769169E+01 0.21314454477E+01
 0.21365699312E+01 0.21418633176E+01 0.21469601818E+01 0.21515317707E+01 0.21553084591E+01
 0.21581093212E+01 0.21598621467E+01 0.21605952231E+01 0.21603987724E+01 0.21593769110E+01
 0.21576211328E+01 0.21552231019E+01 0.21523157232E+01 0.21491081349E+01 0.21458810134E+01
 0.21429347178E+01 0.21405164631E+01 0.21387694218E+01 0.21377334731E+01 0.21373927508E+01
 0.21377334731E+01 0.21387694218E+01 0.21405164631E+01 0.21429347178E+01 0.21458810134E+01
 0.21491081349E+01 0.21523157232E+01 0.21552231019E+01 0.21576211328E+01 0.21593769110E+01
 0.21603987724E+01 0.21605952231E+01 0.21598621467E+01 0.21581093212E+01 0.21553084591E+01
 0.21515317707E+01 0.21469601818E+01 0.21418633176E+01 0.21365699312E+01 0.21314454477E+01
 0.21268769169E+01 0.21232510524E+01 0.21209121042E+01 0.20997747455E+01 0.21009757905E+01
 0.21044655554E+01 0.21099252262E+01 0.21168841467E+01 0.21247829209E+01 0.21330279679E+01
 0.21410359043E+01 0.21482785067E+01 0.21543352648E+01 0.21589434772E+01 0.21620216075E+01
 0.21636460636E+01 0.21639857562E+01 0.21632263149E+01 0.21615249768E+01 0.21590183587E+01
 0.21558698334E+01 0.21523157232E+01 0.21486700581E+01 0.21452765296E+01 0.21424333696E+01
 0.21403359216E+01 0.21390692121E+01 0.21386479642E+01 0.21390692121E+01 0.21403359216E+01
 0.21424333696E+01 0.21452765296E+01 0.21486700581E+01 0.21523157232E+01 0.21558698334E+01
 0.21590183587E+01 0.21615249768E+01 0.21632263149E+01 0.21639857562E+01 0.21636460636E+01
 0.21620216075E+01 0.21589434772E+01 0.21543352648E+01 0.21482785067E+01 0.21410359043E+01
 0.21330279679E+01 0.21247829209E+01 0.21168841467E+01 0.21099252262E+01 0.21044655554E+01
 0.21009757905E+01 0.20651629245E+01 0.20668994577E+01 0.20719701244E+01 0.20799762490E+01
 0.20903064112E+01 0.21021966965E+01 0.21147937124E+01 0.21272224246E+01 0.21386668530E+01
 0.21484621101E+01 0.21561768155E+01 0.21616528852E+01 0.21649796319E+01 0.21664092189E+01
 0.21662518352E+01 0.21647991783E+01 0.21623054483E+01 0.21590183587E+01 0.21552231019E+01
 0.21512588555E+01 0.21474908477E+01 0.21442535503E+01 0.21417994358E+01 0.21402810657E+01
 0.21397687418E+01 0.21402810657E+01 0.21417994358E+01 0.21442535503E+01 0.21474908477E+01
 0.21512588555E+01 0.21552231019E+01 0.21590183587E+01 0.21623054483E+01 0.21647991783E+01
 0.21662518352E+01 0.21664092189E+01 0.21649796319E+01 0.21616528852E+01 0.21561768155E+01
 0.21484621101E+01 0.21386668530E+01 0.21272224246E+01 0.21147937124E+01 0.21021966965E+01
 0.20903064112E+01 0.20799762490E+01 0.20719701244E+01 0.20668994577E+01 0.20135137170E+01
 0.20159140915E+01 0.20229506740E+01 0.20341490584E+01 0.20487656579E+01 0.20658280232E+01
 0.20841999883E+01 0.21026677478E+01 0.21200540807E+01 0.21353526372E+01 0.21478522820E+01
 0.21572105022E+01 0.21634469350E+01 0.21668598289E+01 0.21679013403E+01 0.21670616370E+01
 0.21647991783E+01 0.21615249768E+01 0.21576211328E+01 0.21534633552E+01 0.21494256116E+01
 0.21458629090E+01 0.21430826296E+01 0.21413183672E+01 0.21407141477E+01 0.21413183672E+01
 0.21430826296E+01 0.21458629090E+01 0.21494256116E+01 0.21534633552E+01 0.21576211328E+01
 0.21615249768E+01 0.21647991783E+01 0.21670616370E+01 0.21679013403E+01 0.21668598289E+01
 0.21634469350E+01 0.21572105022E+01 0.21478522820E+01 0.21353526372E+01 0.21200540807E+01
 0.21026677478E+01 0.20841999883E+01 0.20658280232E+01 0.20487656579E+01 0.20341490584E+01