unknown system                          
   1.0000000000000000     
     4.282000    0.000000    0.000000
     0.000000    4.282000    0.000000
     0.000000    0.000000    4.282000
   Na
     2
Direct
  0.000000  0.000000  0.000000
  0.500000  0.500000  0.500000

   48   48   48
 -.65835052961E-01 -.41299258073E-01 0.30652677290E-01 0.14528321158E+00 0.29539720424E+00
 0.47219929769E+00 0.66618691152E+00 0.86793536449E+00 0.10687297289E+01 0.12610546377E+01
 0.14389313374E+01 0.15980541896E+01 0.17357179024E+01 0.18506347035E+01 0.19428034601E+01
 0.20135130550E+01 0.20651631119E+01 0.20997756009E+01 0.21201044103E+01 0.21299622667E+01
 0.21333125177E+01 0.21334499587E+01 0.21325653821E+01 0.21317778349E+01 0.21314892122E+01
 0.21317778349E+01 0.21325653821E+01 0.21334499587E+01 0.21333125177E+01 0.21299622667E+01
 0.21201044103E+01 0.20997756009E+01 0.20651631119E+01 0.20135130550E+01 0.19428034601E+01
 0.18506347035E+01 0.17357179024E+01 0.15980541896E+01 0.14389313374E+01 0.12610546377E+01
 0.10687297289E+01 0.86793536449E+00 0.66618691152E+00 0.47219929769E+00 0.29539720424E+00
 0.14528321158E+00 0.30652677290E-01 -.41299258073E-01 -.41299258073E-01 -.17039143848E-01
 0.54109683327E-01 0.16747616853E+00 0.31596033349E+00 0.49087310339E+00 0.68281499760E+00
 0.88245462344E+00 0.10811602702E+01 0.12714899887E+01 0.14475245711E+01 0.16049975314E+01
 0.17412196989E+01 0.18549024313E+01 0.19460383455E+01 0.20159134515E+01 0.20668996579E+01
 0.21009766511E+01 0.21209134699E+01 0.21305138124E+01 0.21337114524E+01 0.21337649071E+01
 0.21328353068E+01 0.21320247515E+01 0.21317288487E+01 0.21320247515E+01 0.21328353068E+01
 0.21337649071E+01 0.21337114524E+01 0.21305138124E+01 0.21209134699E+01 0.21009766511E+01
 0.20668996579E+01 0.20159134515E+01 0.19460383455E+01 0.18549024313E+01 0.17412196989E+01
 0.16049975314E+01 0.14475245711E+01 0.12714899887E+01 0.10811602702E+01 0.88245462344E+00
 0.68281499760E+00 0.49087310339E+00 0.31596033349E+00 0.16747616853E+00 0.54109683327E-01
 -.17039143848E-01 0.30652677290E-01 0.54109683327E-01 0.12291780474E+00 0.23259695920E+00
 0.37632089228E+00 0.54570762326E+00 0.73165792837E+00 0.92511482099E+00 0.11176930986E+01
 0.13021677950E+01 0.14727940797E+01 0.16254185950E+01 0.17573986047E+01 0.18674444638E+01
 0.19555343464E+01 0.20229500989E+01 0.20719703623E+01 0.21044664317E+01 0.21232524188E+01
 0.21321013229E+01 0.21348563300E+01 0.21346672192E+01 0.21336074950E+01 0.21327300707E+01
 0.21324129023E+01 0.21327300707E+01 0.21336074950E+01 0.21346672192E+01 0.21348563300E+01
 0.21321013229E+01 0.21232524188E+01 0.21044664317E+01 0.20719703622E+01 0.20229500989E+01
 0.19555343464E+01 0.18674444638E+01 0.17573986047E+01 0.16254185950E+01 0.14727940797E+01
 0.13021677950E+01 0.11176930986E+01 0.92511482099E+00 0.73165792837E+00 0.54570762326E+00
 0.37632089228E+00 0.23259695920E+00 0.12291780474E+00 0.54109683327E-01 0.14528321158E+00
 0.16747616853E+00 0.23259695920E+00 0.33645755984E+00 0.47265221085E+00 0.63327519168E+00
 0.80970033047E+00 0.99331096151E+00 0.11761216241E+01 0.13512573272E+01 0.15132492097E+01
 0.16581189546E+01 0.17832958450E+01 0.18874945847E+01 0.19706828792E+01 0.20341485870E+01
 0.20799765472E+01 0.21099261286E+01 0.21268782859E+01 0.21345434516E+01 0.21366086500E+01
 0.21360437248E+01 0.21347813303E+01 0.21337982150E+01 0.21334470414E+01 0.21337982150E+01
 0.21347813303E+01 0.21360437248E+01 0.21366086500E+01 0.21345434516E+01 0.21268782859E+01
 0.21099261286E+01 0.20799765472E+01 0.20341485870E+01 0.19706828792E+01 0.18874945847E+01
 0.17832958450E+01 0.16581189546E+01 0.15132492097E+01 0.13512573272E+01 0.11761216241E+01
 0.99331096151E+00 0.80970033047E+00 0.63327519168E+00 0.47265221085E+00 0.33645755984E+00
 0.23259695920E+00 0.16747616853E+00 0.29539720424E+00 0.31596033349E+00 0.37632089228E+00
 0.47265221085E+00 0.59907306390E+00 0.74828102229E+00 0.91226272002E+00 0.10829848293E+01
 0.12529965009E+01 0.14158855235E+01 0.15665384443E+01 0.17011967860E+01 0.18173833891E+01
 0.19138331920E+01 0.19905252542E+01 0.20487653234E+01 0.20903067897E+01 0.21168850854E+01
 0.21314468234E+01 0.21375932117E+01 0.21387850418E+01 0.21377457816E+01 0.21362234331E+01
 0.21351008571E+01 0.21347039281E+01 0.21351008571E+01 0.21362234331E+01 0.21377457816E+01
 0.21387850418E+01 0.21375932117E+01 0.21314468234E+01 0.21168850854E+01 0.20903067897E+01
 0.20487653234E+01 0.19905252542E+01 0.19138331920E+01 0.18173833891E+01 0.17011967860E+01
 0.15665384443E+01 0.14158855235E+01 0.12529965009E+01 0.10829848293E+01 0.91226272002E+00
 0.74828102229E+00 0.59907306390E+00 0.47265221085E+00 0.37632089228E+00 0.31596033349E+00
 0.47219929769E+00 0.49087310339E+00 0.54570762326E+00 0.63327519168E+00 0.74828102229E+00
 0.88411105473E+00 0.10334690815E+01 0.11890186122E+01 0.13439493595E+01 0.14923936936E+01
 0.16296443010E+01 0.17521903928E+01 0.18576711827E+01 0.19448740463E+01 0.20138306495E+01
 0.20658278516E+01 0.21021971717E+01 0.21247839064E+01 0.21365713194E+01 0.21409888050E+01
 0.21411999890E+01 0.21396260260E+01 0.21378011002E+01 0.21365090256E+01 0.21360550192E+01
 0.21365090256E+01 0.21378011002E+01 0.21396260260E+01 0.21411999890E+01 0.21409888050E+01
 0.21365713194E+01 0.21247839064E+01 0.21021971717E+01 0.20658278516E+01 0.20138306495E+01
 0.19448740463E+01 0.18576711827E+01 0.17521903928E+01 0.16296443010E+01 0.14923936936E+01
 0.13439493595E+01 0.11890186122E+01 0.10334690815E+01 0.88411105473E+00 0.74828102229E+00
 0.63327519168E+00 0.54570762326E+00 0.49087310339E+00 0.66618691152E+00 0.68281499760E+00
 0.73165792837E+00 0.80970033047E+00 0.91226272002E+00 0.10334690815E+01 0.11668094294E+01
 0.13057206737E+01 0.14440991688E+01 0.15766645111E+01 0.16991373129E+01 0.18082724741E+01
 0.19018585390E+01 0.19787876957E+01 0.20392004666E+01 0.20841999977E+01 0.21147942973E+01
 0.21330290100E+01 0.21418647255E+01 0.21444841051E+01 0.21436887813E+01 0.21415587502E+01
 0.21394036676E+01 0.21379165387E+01 0.21373949738E+01 0.21379165387E+01 0.21394036676E+01
 0.21415587502E+01 0.21436887813E+01 0.21444841051E+01 0.21418647255E+01 0.21330290100E+01
 0.21147942973E+01 0.20841999977E+01 0.20392004666E+01 0.19787876957E+01 0.19018585390E+01
 0.18082724741E+01 0.16991373129E+01 0.15766645111E+01 0.14440991688E+01 0.13057206737E+01
 0.11668094294E+01 0.10334690815E+01 0.91226272002E+00 0.80970033047E+00 0.73165792837E+00
 0.68281499760E+00 0.86793536449E+00 0.88245462344E+00 0.92511482099E+00 0.99331096151E+00
 0.10829848293E+01 0.11890186122E+01 0.13057206737E+01 0.14273338061E+01 0.15484805238E+01
 0.16644715052E+01 0.17714569113E+01 0.18664779876E+01 0.19475236523E+01 0.20136612669E+01
 0.20651621016E+01 0.21026679481E+01 0.21272231285E+01 0.21410370127E+01 0.21469616175E+01
 0.21478545567E+01 0.21461058859E+01 0.21434381601E+01 0.21409447949E+01 0.21392466529E+01
 0.21386501119E+01 0.21392466529E+01 0.21409447949E+01 0.21434381601E+01 0.21461058859E+01
 0.21478545567E+01 0.21469616175E+01 0.21410370127E+01 0.21272231285E+01 0.21026679481E+01
 0.20651621016E+01 0.20136612669E+01 0.19475236523E+01 0.18664779876E+01 0.17714569113E+01
 0.16644715052E+01 0.15484805238E+01 0.14273338061E+01 0.13057206737E+01 0.11890186122E+01
 0.10829848293E+01 0.99331096151E+00 0.92511482099E+00 0.88245462344E+00 0.10687297289E+01
 0.10811602702E+01 0.11176930986E+01 0.11761216241E+01 0.12529965009E+01 0.13439493595E+01
 0.14440991688E+01 0.15484805238E+01 0.16524186993E+01 0.17517923646E+01 0.18431787513E+01
 0.19239405371E+01 0.19923366504E+01 0.20476861003E+01 0.20901678266E+01 0.21200544748E+01
 0.21386676822E+01 0.21482796897E+01 0.21515332419E+01 0.21508925935E+01 0.21483113169E+01
 0.21451635441E+01 0.21423503800E+01 0.21404431514E+01 0.21397708192E+01 0.21404431514E+01
 0.21423503800E+01 0.21451635441E+01 0.21483113169E+01 0.21508925935E+01 0.21515332419E+01
 0.21482796897E+01 0.21386676822E+01 0.21200544748E+01 0.20901678266E+01 0.20476861003E+01
 0.19923366504E+01 0.19239405371E+01 0.18431787513E+01 0.17517923646E+01 0.16524186993E+01
 0.15484805238E+01 0.14440991688E+01 0.13439493595E+01 0.12529965009E+01 0.11761216241E+01
 0.11176930986E+01 0.10811602702E+01 0.12610546377E+01 0.12714899887E+01 0.13021677950E+01
 0.13512573272E+01 0.14158855235E+01 0.14923936936E+01 0.15766645111E+01 0.16644715052E+01
 0.17517923646E+01 0.18350436690E+01 0.19112385920E+01 0.19781136218E+01 0.20342738901E+01
 0.20792547965E+01 0.21127977960E+01 0.21353532227E+01 0.21484630681E+01 0.21543365288E+01
 0.21553099723E+01 0.21534110517E+01 0.21501639280E+01 0.21466278108E+01 0.21435448099E+01
 0.21414553788E+01 0.21407161640E+01 0.21414553788E+01 0.21435448099E+01 0.21466278108E+01
 0.21501639280E+01 0.21534110517E+01 0.21553099723E+01 0.21543365288E+01 0.21484630681E+01
 0.21353532227E+01 0.21127977960E+01 0.20792547965E+01 0.20342738901E+01 0.19781136218E+01
 0.19112385920E+01 0.18350436690E+01 0.17517923646E+01 0.16644715052E+01 0.15766645111E+01
 0.14923936936E+01 0.14158855235E+01 0.13512573272E+01 0.13021677950E+01 0.12714899887E+01
 0.14389313374E+01 0.14475245711E+01 0.14727940797E+01 0.15132492097E+01 0.15665384443E+01
 0.16296443010E+01 0.16991373129E+01 0.17714569113E+01 0.18431787513E+01 0.19112385920E+01
 0.19731107873E+01 0.20269636427E+01 0.20717778253E+01 0.21068575979E+01 0.21319526476E+01
 0.21478530536E+01 0.21561779037E+01 0.21589448267E+01 0.21581108813E+01 0.21552612146E+01
 0.21515321308E+01 0.21477213989E+01 0.21444477050E+01 0.21422290828E+01 0.21414424195E+01
 0.21422290828E+01 0.21444477050E+01 0.21477213989E+01 0.21515321308E+01 0.21552612146E+01
 0.21581108813E+01 0.21589448267E+01 0.21561779037E+01 0.21478530536E+01 0.21319526476E+01
 0.21068575979E+01 0.20717778253E+01 0.20269636427E+01 0.19731107873E+01 0.19112385920E+01
 0.18431787513E+01 0.17714569113E+01 0.16991373129E+01 0.16296443010E+01 0.15665384443E+01
 0.15132492097E+01 0.14727940797E+01 0.14475245711E+01 0.15980541896E+01 0.16049975314E+01
 0.16254185950E+01 0.16581189546E+01 0.17011967860E+01 0.17521903928E+01 0.18082724741E+01
 0.18664779876E+01 0.19239405371E+01 0.19781136218E+01 0.20269636427E+01 0.20691129642E+01
 0.21034996607E+01 0.21294003091E+01 0.21469749850E+01 0.21572114530E+01 0.21616541026E+01
 0.21620230443E+01 0.21598637567E+01 0.21563550083E+01 0.21523168236E+01 0.21483511311E+01
 0.21449849417E+01 0.21427098652E+01 0.21419034060E+01 0.21427098652E+01 0.21449849417E+01
 0.21483511311E+01 0.21523168236E+01 0.21563550083E+01 0.21598637567E+01 0.21620230443E+01
 0.21616541026E+01 0.21572114530E+01 0.21469749850E+01 0.21294003091E+01 0.21034996607E+01
 0.20691129642E+01 0.20269636427E+01 0.19781136218E+01 0.19239405371E+01 0.18664779876E+01
 0.18082724741E+01 0.17521903928E+01 0.17011967860E+01 0.16581189546E+01 0.16254185950E+01
 0.16049975314E+01 0.17357179024E+01 0.17412196989E+01 0.17573986047E+01 0.17832958450E+01
 0.18173833891E+01 0.18576711827E+01 0.19018585390E+01 0.19475236523E+01 0.19923366504E+01
 0.20342738901E+01 0.20717778253E+01 0.21034996607E+01 0.21284512549E+01 0.21463643110E+01
 0.21576888334E+01 0.21634480572E+01 0.21649809754E+01 0.21636475870E+01 0.21605968849E+01
 0.21566735350E+01 0.21524709183E+01 0.21484624482E+01 0.21451073912E+01 0.21428568524E+01
 0.21420618843E+01 0.21428568524E+01 0.21451073912E+01 0.21484624482E+01 0.21524709183E+01
 0.21566735350E+01 0.21605968849E+01 0.21636475870E+01 0.21649809754E+01 0.21634480572E+01
 0.21576888334E+01 0.21463643110E+01 0.21284512549E+01 0.21034996607E+01 0.20717778253E+01
 0.20342738901E+01 0.19923366504E+01 0.19475236523E+01 0.19018585390E+01 0.18576711827E+01
 0.18173833891E+01 0.17832958450E+01 0.17573986047E+01 0.17412196989E+01 0.18506347035E+01
 0.18549024313E+01 0.18674444638E+01 0.18874945847E+01 0.19138331920E+01 0.19448740463E+01
 0.19787876957E+01 0.20136612669E+01 0.20476861003E+01 0.20792547965E+01 0.21068575979E+01
 0.21294003091E+01 0.21463643110E+01 0.21578211150E+01 0.21643478064E+01 0.21668611128E+01
 0.21664106825E+01 0.21639873632E+01 0.21604004873E+01 0.21562532168E+01 0.21520026251E+01
 0.21480514231E+01 0.21448054916E+01 0.21426569784E+01 0.21419034060E+01 0.21426569784E+01
 0.21448054916E+01 0.21480514231E+01 0.21520026251E+01 0.21562532168E+01 0.21604004873E+01
 0.21639873632E+01 0.21664106825E+01 0.21668611128E+01 0.21643478064E+01 0.21578211150E+01
 0.21463643110E+01 0.21294003091E+01 0.21068575979E+01 0.20792547965E+01 0.20476861003E+01
 0.20136612669E+01 0.19787876957E+01 0.19448740463E+01 0.19138331920E+01 0.18874945847E+01
 0.18674444638E+01 0.18549024313E+01 0.19428034601E+01 0.19460383455E+01 0.19555343464E+01
 0.19706828792E+01 0.19905252542E+01 0.20138306495E+01 0.20392004666E+01 0.20651621016E+01
 0.20901678266E+01 0.21127977960E+01 0.21319526476E+01 0.21469749850E+01 0.21576888334E+01
 0.21643478064E+01 0.21675131892E+01 0.21679027728E+01 0.21662534095E+01 0.21632280009E+01
 0.21593786806E+01 0.21551589422E+01 0.21509626398E+01 0.21471607372E+01 0.21441108151E+01
 0.21421299234E+01 0.21414424195E+01 0.21421299234E+01 0.21441108151E+01 0.21471607372E+01
 0.21509626398E+01 0.21551589422E+01 0.21593786806E+01 0.21632280009E+01 0.21662534095E+01
 0.21679027728E+01 0.21675131892E+01 0.21643478064E+01 0.21576888334E+01 0.21469749850E+01
 0.21319526476E+01 0.21127977960E+01 0.20901678266E+01 0.20651621016E+01 0.20392004666E+01
 0.20138306495E+01 0.19905252542E+01 0.19706828792E+01 0.19555343464E+01 0.19460383455E+01
 0.20135130550E+01 0.20159134515E+01 0.20229500989E+01 0.20341485870E+01 0.20487653234E+01
 0.20658278516E+01 0.20841999977E+01 0.21026679481E+01 0.21200544748E+01 0.21353532227E+01
 0.21478530536E+01 0.21572114530E+01 0.21634480572E+01 0.21668611128E+01 0.21679027728E+01
 0.21670632003E+01 0.21648008510E+01 0.21615267363E+01 0.21576229593E+01 0.21534652340E+01
 0.21494275333E+01 0.21458648675E+01 0.21430846182E+01 0.21413203762E+01 0.21407161640E+01
 0.21413203762E+01 0.21430846182E+01 0.21458648675E+01 0.21494275333E+01 0.21534652340E+01
 0.21576229593E+01 0.21615267363E+01 0.21648008510E+01 0.21670632003E+01 0.21679027728E+01
 0.21668611128E+01 0.21634480572E+01 0.21572114530E+01 0.21478530536E+01 0.21353532227E+01
 0.21200544748E+01 0.21026679481E+01 0.20841999977E+01 0.20658278516E+01 0.20487653234E+01
 0.20341485870E+01 0.20229500989E+01 0.20159134515E+01 0.20651631119E+01 0.20668996579E+01
 0.20719703623E+01 0.20799765472E+01 0.20903067897E+01 0.21021971717E+01 0.21147942973E+01
 0.21272231285E+01 0.21386676822E+01 0.21484630681E+01 0.21561779037E+01 0.21616541026E+01
 0.21649809754E+01 0.21664106825E+01 0.21662534095E+01 0.21648008510E+01 0.21623072052E+01
 0.21590201860E+01 0.21552249879E+01 0.21512607915E+01 0.21474928277E+01 0.21442555687E+01
 0.21418014853E+01 0.21402831359E+01 0.21397708192E+01 0.21402831359E+01 0.21418014853E+01
 0.21442555687E+01 0.21474928277E+01 0.21512607915E+01 0.21552249879E+01 0.21590201860E+01
 0.21623072052E+01 0.21648008510E+01 0.21662534095E+01 0.21664106825E+01 0.21649809754E+01
 0.21616541026E+01 0.21561779037E+01 0.21484630681E+01 0.21386676822E+01 0.21272231285E+01
 0.21147942973E+01 0.21021971717E+01 0.20903067897E+01 0.20799765472E+01 0.20719703622E+01
 0.20668996579E+01 0.20997756009E+01 0.21009766511E+01 0.21044664317E+01 0.21099261286E+01
 0.21168850854E+01 0.21247839064E+01 0.21330290100E+01 0.21410370127E+01 0.21482796897E+01
 0.21543365288E+01 0.21589448267E+01 0.21620230443E+01 0.21636475870E+01 0.21639873632E+01
 0.21632280009E+01 0.21615267363E+01 0.21590201860E+01 0.21558717231E+01 0.21523176705E+01
 0.21486720585E+01 0.21452785776E+01 0.21424354584E+01 0.21403380421E+01 0.21390713528E+01
 0.21386501119E+01 0.21390713528E+01 0.21403380421E+01 0.21424354584E+01 0.21452785776E+01
 0.21486720585E+01 0.21523176705E+01 0.21558717231E+01 0.21590201860E+01 0.21615267363E+01
 0.21632280009E+01 0.21639873632E+01 0.21636475870E+01 0.21620230443E+01 0.21589448267E+01
 0.21543365288E+01 0.21482796897E+01 0.21410370127E+01 0.21330290100E+01 0.21247839064E+01
 0.21168850854E+01 0.21099261286E+01 0.21044664317E+01 0.21009766511E+01 0.21201044103E+01
 0.21209134699E+01 0.21232524188E+01 0.21268782859E+01 0.21314468234E+01 0.21365713194E+01
 0.21418647255E+01 0.21469616175E+01 0.21515332419E+01 0.21553099723E+01 0.21581108813E+01
 0.21598637567E+01 0.21605968849E+01 0.21604004873E+01 0.21593786806E+01 0.21576229593E+01
 0.21552249879E+01 0.21523176705E+01 0.21491101438E+01 0.21458830810E+01 0.21429368382E+01
 0.21405186271E+01 0.21387716182E+01 0.21377356894E+01 0.21373949738E+01 0.21377356894E+01
 0.21387716182E+01 0.21405186271E+01 0.21429368382E+01 0.21458830810E+01 0.21491101438E+01
 0.21523176705E+01 0.21552249879E+01 0.21576229593E+01 0.21593786806E+01 0.21604004873E+01
 0.21605968849E+01 0.21598637567E+01 0.21581108813E+01 0.21553099723E+01 0.21515332419E+01
 0.21469616175E+01 0.21418647255E+01 0.21365713194E+01 0.21314468234E+01 0.21268782859E+01
 0.21232524188E+01 0.21209134699E+01 0.21299622667E+01 0.21305138124E+01 0.21321013229E+01
 0.21345434516E+01 0.21375932117E+01 0.21409888050E+01 0.21444841051E+01 0.21478545567E+01
 0.21508925935E+01 0.21534110517E+01 0.21552612146E+01 0.21563550083E+01 0.21566735350E+01
 0.21562532168E+01 0.21551589422E+01 0.21534652340E+01 0.21512607915E+01 0.21486720585E+01
 0.21458830810E+01 0.21431273789E+01 0.21406458732E+01 0.21386304291E+01 0.21371859821E+01
 0.21363342928E+01 0.21360550192E+01 0.21363342928E+01 0.21371859821E+01 0.21386304291E+01
 0.21406458732E+01 0.21431273789E+01 0.21458830810E+01 0.21486720585E+01 0.21512607915E+01
 0.21534652340E+01 0.21551589422E+01 0.21562532168E+01 0.21566735350E+01 0.21563550083E+01
 0.21552612146E+01 0.21534110517E+01 0.21508925935E+01 0.21478545567E+01 0.21444841051E+01
 0.21409888050E+01 0.21375932117E+01 0.21345434516E+01 0.21321013229E+01 0.21305138124E+01
 0.21333125177E+01 0.21337114524E+01 0.21348563300E+01 0.21366086500E+01 0.21387850418E+01
 0.21411999890E+01 0.21436887813E+01 0.21461058859E+01 0.21483113169E+01 0.21501639280E+01
 0.21515321308E+01 0.21523168236E+01 0.21524709183E+01 0.21520026251E+01 0.21509626398E+01
 0.21494275333E+01 0.21474928277E+01 0.21452785776E+01 0.21429368382E+01 0.21406458732E+01
 0.21385849469E+01 0.21368994942E+01 0.21356765545E+01 0.21349457170E+01 0.21347039281E+01
 0.21349457170E+01 0.21356765545E+01 0.21368994942E+01 0.21385849469E+01 0.21406458732E+01
 0.21429368382E+01 0.21452785776E+01 0.21474928277E+01 0.21494275333E+01 0.21509626398E+01
 0.21520026251E+01 0.21524709183E+01 0.21523168236E+01 0.21515321308E+01 0.21501639280E+01
 0.21483113169E+01 0.21461058859E+01 0.21436887813E+01 0.21411999890E+01 0.21387850418E+01
 0.21366086500E+01 0.21348563300E+01 0.21337114524E+01 0.21334499587E+01 0.21337649071E+01
 0.21346672192E+01 0.21360437248E+01 0.21377457816E+01 0.21396260260E+01 0.21415587502E+01
 0.21434381601E+01 0.21451635441E+01 0.21466278108E+01 0.21477213989E+01 0.21483511311E+01
 0.21484624482E+01 0.21480514231E+01 0.21471607372E+01 0.21458648675E+01 0.21442555687E+01
 0.21424354584E+01 0.21405186271E+01 0.21386304291E+01 0.21368994942E+01 0.21354423870E+01
 0.21343486041E+01 0.21336743485E+01 0.21334470414E+01 0.21336743485E+01 0.21343486041E+01
 0.21354423870E+01 0.21368994942E+01 0.21386304291E+01 0.21405186271E+01 0.21424354584E+01
 0.21442555687E+01 0.21458648675E+01 0.21471607372E+01 0.21480514231E+01 0.21484624482E+01
 0.21483511311E+01 0.21477213989E+01 0.21466278108E+01 0.21451635441E+01 0.21434381601E+01
 0.21415587502E+01 0.21396260260E+01 0.21377457816E+01 0.21360437248E+01 0.21346672192E+01
 0.21337649071E+01 0.21325653821E+01 0.21328353068E+01 0.21336074950E+01 0.21347813303E+01
 0.21362234331E+01 0.21378011002E+01 0.21394036676E+01 0.21409447949E+01 0.21423503800E+01
 0.21435448099E+01 0.21444477050E+01 0.21449849417E+01 0.21451073912E+01 0.21448054916E+01
 0.21441108151E+01 0.21430846182E+01 0.21418014853E+01 0.21403380421E+01 0.21387716182E+01
 0.21371859821E+01 0.21356765545E+01 0.21343486041E+01 0.21333070854E+01 0.21326417507E+01
 0.21324129023E+01 0.21326417507E+01 0.21333070854E+01 0.21343486041E+01 0.21356765545E+01
 0.21371859821E+01 0.21387716182E+01 0.21403380421E+01 0.21418014853E+01 0.21430846182E+01
 0.21441108151E+01 0.21448054916E+01 0.21451073912E+01 0.21449849417E+01 0.21444477050E+01
 0.21435448099E+01 0.21423503800E+01 0.21409447949E+01 0.21394036676E+01 0.21378011002E+01
 0.21362234331E+01 0.21347813303E+01 0.21336074950E+01 0.21328353068E+01 0.21317778349E+01
 0.21320247515E+01 0.21327300707E+01 0.21337982150E+01 0.21351008571E+01 0.21365090256E+01
 0.21379165387E+01 0.21392466529E+01 0.21404431514E+01 0.21414553788E+01 0.21422290828E+01
 0.21427098652E+01 0.21428568524E+01 0.21426569784E+01 0.21421299234E+01 0.21413203762E+01
 0.21402831359E+01 0.21390713528E+01 0.21377356894E+01 0.21363342928E+01 0.21349457170E+01
 0.21336743485E+01 0.21326417507E+01 0.21319648734E+01 0.21317288487E+01 0.21319648734E+01
 0.21326417507E+01 0.21336743485E+01 0.21349457170E+01 0.21363342928E+01 0.21377356894E+01
 0.21390713528E+01 0.21402831359E+01 0.21413203762E+01 0.21421299234E+01 0.21426569784E+01
 0.21428568524E+01 0.21427098652E+01 0.21422290828E+01 0.21414553788E+01 0.21404431514E+01
 0.21392466529E+01 0.21379165387E+01 0.21365090256E+01 0.21351008571E+01 0.21337982150E+01
 0.21327300707E+01 0.21320247515E+01 0.21314892122E+01 0.21317288487E+01 0.21324129023E+01
 0.21334470414E+01 0.21347039281E+01 0.21360550192E+01 0.21373949738E+01 0.21386501119E+01
 0.21397708192E+01 0.21407161640E+01 0.21414424195E+01 0.21419034060E+01 0.21420618843E+01
 0.21419034060E+01 0.21414424195E+01 0.21407161640E+01 0.21397708192E+01 0.21386501119E+01
 0.21373949738E+01 0.21360550192E+01 0.21347039281E+01 0.21334470414E+01 0.21324129023E+01
 0.21317288487E+01 0.21314892122E+01 0.21317288487E+01 0.21324129023E+01 0.21334470414E+01
 0.21347039281E+01 0.21360550192E+01 0.21373949738E+01 0.21386501119E+01 0.21397708192E+01
 0.21407161640E+01 0.21414424195E+01 0.21419034060E+01 0.21420618843E+01 0.21419034060E+01
 0.21414424195E+01 0.21407161640E+01 0.21397708192E+01 0.21386501119E+01 0.21373949738E+01
 0.21360550192E+01 0.21347039281E+01 0.21334470414E+01 0.21324129023E+01 0.21317288487E+01
 0.21317778349E+01 0.21320247515E+01 0.21327300707E+01 0.21337982150E+01 0.21351008571E+01
 0.21365090256E+01 0.21379165387E+01 0.21392466529E+01 0.21404431514E+01 0.21414553788E+01
 0.21422290828E+01 0.21427098652E+01 0.21428568524E+01 0.21426569784E+01 0.21421299234E+01
 0.21413203762E+01 0.21402831359E+01 0.21390713528E+01 0.21377356894E+01 0.21363342928E+01
 0.21349457170E+01 0.21336743485E+01 0.21326417507E+01 0.21319648734E+01 0.21317288487E+01
 0.21319648734E+01 0.21326417507E+01 0.21336743485E+01 0.21349457170E+01 0.21363342928E+01
 0.21377356894E+01 0.21390713528E+01 0.21402831359E+01 0.21413203762E+01 0.21421299234E+01
 0.21426569784E+01 0.21428568524E+01 0.21427098652E+01 0.21422290828E+01 0.21414553788E+01
 0.21404431514E+01 0.21392466529E+01 0.21379165387E+01 0.21365090256E+01 0.21351008571E+01
 0.21337982150E+01 0.21327300707E+01 0.21320247515E+01 0.21325653821E+01 0.21328353068E+01
 0.21336074950E+01 0.21347813303E+01 0.21362234331E+01 0.21378011002E+01 0.21394036676E+01
 0.21409447949E+01 0.21423503800E+01 0.21435448099E+01 0.21444477050E+01 0.21449849417E+01
 0.21451073912E+01 0.21448054916E+01 0.21441108151E+01 0.21430846182E+01 0.21418014853E+01
 0.21403380421E+01 0.21387716182E+01 0.21371859821E+01 0.21356765545E+01 0.21343486041E+01
 0.21333070854E+01 0.21326417507E+01 0.21324129023E+01 0.21326417507E+01 0.21333070854E+01
 0.21343486041E+01 0.21356765545E+01 0.21371859821E+01 0.21387716182E+01 0.21403380421E+01
 0.21418014853E+01 0.21430846182E+01 0.21441108151E+01 0.21448054916E+01 0.21451073912E+01
 0.21449849417E+01 0.21444477050E+01 0.21435448099E+01 0.21423503800E+01 0.21409447949E+01
 0.21394036676E+01 0.21378011002E+01 0.21362234331E+01 0.21347813303E+01 0.21336074950E+01
 0.21328353068E+01 0.21334499587E+01 0.21337649071E+01 0.21346672192E+01 0.21360437248E+01
 0.21377457816E+01 0.21396260260E+01 0.21415587502E+01 0.21434381601E+01 0.21451635441E+01
 0.21466278108E+01 0.21477213989E+01 0.21483511311E+01 0.21484624482E+01 0.21480514231E+01
 0.21471607372E+01 0.21458648675E+01 0.21442555687E+01 0.21424354584E+01 0.21405186271E+01
 0.21386304291E+01 0.21368994942E+01 0.21354423870E+01 0.21343486041E+01 0.21336743485E+01
 0.21334470414E+01 0.21336743485E+01 0.21343486041E+01 0.21354423870E+01 0.21368994942E+01
 0.21386304291E+01 0.21405186271E+01 0.21424354584E+01 0.21442555687E+01 0.21458648675E+01
 0.21471607372E+01 0.21480514231E+01 0.21484624482E+01 0.21483511311E+01 0.21477213989E+01
 0.21466278108E+01 0.21451635441E+01 0.21434381601E+01 0.21415587502E+01 0.21396260260E+01
 0.21377457816E+01 0.21360437248E+01 0.21346672192E+01 0.21337649071E+01 0.21333125177E+01
 0.21337114524E+01 0.21348563300E+01 0.21366086500E+01 0.21387850418E+01 0.21411999890E+01
 0.21436887813E+01 0.21461058859E+01 0.21483113169E+01 0.21501639280E+01 0.21515321308E+01
 0.21523168236E+01 0.21524709183E+01 0.21520026251E+01 0.21509626398E+01 0.21494275333E+01
 0.21474928277E+01 0.21452785776E+01 0.21429368382E+01 0.21406458732E+01 0.21385849469E+01
 0.21368994942E+01 0.21356765545E+01 0.21349457170E+01 0.21347039281E+01 0.21349457170E+01
 0.21356765545E+01 0.21368994942E+01 0.21385849469E+01 0.21406458732E+01 0.21429368382E+01
 0.21452785776E+01 0.21474928277E+01 0.21494275333E+01 0.21509626398E+01 0.21520026251E+01
 0.21524709183E+01 0.21523168236E+01 0.21515321308E+01 0.21501639280E+01 0.21483113169E+01
 0.21461058859E+01 0.21436887813E+01 0.21411999890E+01 0.21387850418E+01 0.21366086500E+01
 0.21348563300E+01 0.21337114524E+01 0.21299622667E+01 0.21305138124E+01 0.21321013229E+01
 0.21345434516E+01 0.21375932117E+01 0.21409888050E+01 0.21444841051E+01 0.21478545567E+01
 0.21508925935E+01 0.21534110517E+01 0.21552612146E+01 0.21563550083E+01 0.21566735350E+01
 0.21562532168E+01 0.21551589422E+01 0.21534652340E+01 0.21512607915E+01 0.21486720585E+01
 0.21458830810E+01 0.21431273789E+01 0.21406458732E+01 0.21386304291E+01 0.21371859821E+01
 0.21363342928E+01 0.21360550192E+01 0.21363342928E+01 0.21371859821E+01 0.21386304291E+01
 0.21406458732E+01 0.21431273789E+01 0.21458830810E+01 0.21486720585E+01 0.21512607915E+01
 0.21534652340E+01 0.21551589422E+01 0.21562532168E+01 0.21566735350E+01 0.21563550083E+01
 0.21552612146E+01 0.21534110517E+01 0.21508925935E+01 0.21478545567E+01 0.21444841051E+01
 0.21409888050E+01 0.21375932117E+01 0.21345434516E+01 0.21321013229E+01 0.21305138124E+01
 0.21201044103E+01 0.21209134699E+01 0.21232524188E+01 0.21268782859E+01 0.21314468234E+01
 0.21365713194E+01 0.21418647255E+01 0.21469616175E+01 0.21515332419E+01 0.21553099723E+01
 0.21581108813E+01 0.21598637567E+01 0.21605968849E+01 0.21604004873E+01 0.21593786806E+01
 0.21576229593E+01 0.21552249879E+01 0.21523176705E+01 0.21491101438E+01 0.21458830810E+01
 0.21429368382E+01 0.21405186271E+01 0.21387716182E+01 0.21377356894E+01 0.21373949738E+01
 0.21377356894E+01 0.21387716182E+01 0.21405186271E+01 0.21429368382E+01 0.21458830810E+01
 0.21491101438E+01 0.21523176705E+01 0.21552249879E+01 0.21576229593E+01 0.21593786806E+01
 0.21604004873E+01 0.21605968849E+01 0.21598637567E+01 0.21581108813E+01 0.21553099723E+01
 0.21515332419E+01 0.21469616175E+01 0.21418647255E+01 0.21365713194E+01 0.21314468234E+01
 0.21268782859E+01 0.21232524188E+01 0.21209134699E+01 0.20997756009E+01 0.21009766511E+01
 0.21044664317E+01 0.21099261286E+01 0.21168850854E+01 0.21247839064E+01 0.21330290100E+01
 0.21410370127E+01 0.21482796897E+01 0.21543365288E+01 0.21589448267E+01 0.21620230443E+01
 0.21636475870E+01 0.21639873632E+01 0.21632280009E+01 0.21615267363E+01 0.21590201860E+01
 0.21558717231E+01 0.21523176705E+01 0.21486720585E+01 0.21452785776E+01 0.21424354584E+01
 0.21403380421E+01 0.21390713528E+01 0.21386501119E+01 0.21390713528E+01 0.21403380421E+01
 0.21424354584E+01 0.21452785776E+01 0.21486720585E+01 0.21523176705E+01 0.21558717231E+01
 0.21590201860E+01 0.21615267363E+01 0.21632280009E+01 0.21639873632E+01 0.21636475870E+01
 0.21620230443E+01 0.21589448267E+01 0.21543365288E+01 0.21482796897E+01 0.21410370127E+01
 0.21330290100E+01 0.21247839064E+01 0.21168850854E+01 0.21099261286E+01 0.21044664317E+01
 0.21009766511E+01 0.20651631119E+01 0.20668996579E+01 0.20719703622E+01 0.20799765472E+01
 0.20903067897E+01 0.21021971717E+01 0.21147942973E+01 0.21272231285E+01 0.21386676822E+01
 0.21484630681E+01 0.21561779037E+01 0.21616541026E+01 0.21649809754E+01 0.21664106825E+01
 0.21662534095E+01 0.21648008510E+01 0.21623072052E+01 0.21590201860E+01 0.21552249879E+01
 0.21512607915E+01 0.21474928277E+01 0.21442555687E+01 0.21418014853E+01 0.21402831359E+01
 0.21397708192E+01 0.21402831359E+01 0.21418014853E+01 0.21442555687E+01 0.21474928277E+01
 0.21512607915E+01 0.21552249879E+01 0.21590201860E+01 0.21623072052E+01 0.21648008510E+01
 0.21662534095E+01 0.21664106825E+01 0.21649809754E+01 0.21616541026E+01 0.21561779037E+01
 0.21484630681E+01 0.21386676822E+01 0.21272231285E+01 0.21147942973E+01 0.21021971717E+01
 0.20903067897E+01 0.20799765472E+01 0.20719703622E+01 0.20668996579E+01 0.20135130550E+01
 0.20159134515E+01 0.20229500989E+01 0.20341485870E+01 0.20487653234E+01 0.20658278516E+01
 0.20841999977E+01 0.21026679481E+01 0.21200544748E+01 0.21353532227E+01 0.21478530536E+01
 0.21572114530E+01 0.21634480572E+01 0.21668611128E+01 0.21679027728E+01 0.21670632003E+01
 0.21648008510E+01 0.21615267363E+01 0.21576229593E+01 0.21534652340E+01 0.21494275333E+01
 0.21458648675E+01 0.21430846182E+01 0.21413203762E+01 0.21407161640E+01 0.21413203762E+01
 0.21430846182E+01 0.21458648675E+01 0.21494275333E+01 0.21534652340E+01 0.21576229593E+01
 0.21615267363E+01 0.21648008510E+01 0.21670632003E+01 0.21679027728E+01 0.21668611128E+01
 0.21634480572E+01 0.21572114530E+01 0.21478530536E+01 0.21353532227E+01 0.21200544748E+01
 0.21026679481E+01 0.20841999977E+01 0.20658278516E+01 0.20487653234E+01 0.20341485870E+01