unknown system                          
   1.0000000000000000     
     4.203381   -0.000000   -0.000000
    -0.000000    4.203381   -0.000000
     0.000000   -0.000000    4.203381
   Na
     2
Direct
  0.000000 -0.000000  0.000000
  0.500000  0.500000  0.500000

   48   48   48
 -.26511634972E-01 -.45554802915E-02 0.60033034202E-01 0.16357179736E+00 0.30037875918E+00
 0.46328034807E+00 0.64415580921E+00 0.83455239253E+00 0.10264021710E+01 0.12127314769E+01
 0.13881164920E+01 0.15486803088E+01 0.16916859509E+01 0.18150804976E+01 0.19174169302E+01
 0.19982969624E+01 0.20589624080E+01 0.21014468799E+01 0.21286304473E+01 0.21446739586E+01
 0.21537695800E+01 0.21591082802E+01 0.21624834091E+01 0.21645157051E+01 0.21652156694E+01
 0.21645157051E+01 0.21624834091E+01 0.21591082802E+01 0.21537695800E+01 0.21446739586E+01
 0.21286304473E+01 0.21014468799E+01 0.20589624080E+01 0.19982969624E+01 0.19174169302E+01
 0.18150804976E+01 0.16916859509E+01 0.15486803088E+01 0.13881164920E+01 0.12127314769E+01
 0.10264021710E+01 0.83455239253E+00 0.64415580921E+00 0.46328034807E+00 0.30037875918E+00
 0.16357179736E+00 0.60033034202E-01 -.45554802915E-02 -.45554802915E-02 0.17189922030E-01
 0.81162432916E-01 0.18372246161E+00 0.31924355632E+00 0.48061135720E+00 0.65976853178E+00
 0.84833659182E+00 0.10383346812E+01 0.12228784289E+01 0.13966148103E+01 0.15557011477E+01
 0.16973967559E+01 0.18196262802E+01 0.19209296815E+01 0.20009220174E+01 0.20608666314E+01
 0.21027753550E+01 0.21295479998E+01 0.21453316516E+01 0.21542734629E+01 0.21595155921E+01
 0.21628215018E+01 0.21648065015E+01 0.21654890007E+01 0.21648065015E+01 0.21628215018E+01
 0.21595155921E+01 0.21542734629E+01 0.21453316516E+01 0.21295479998E+01 0.21027753550E+01
 0.20608666314E+01 0.20009220174E+01 0.19209296815E+01 0.18196262802E+01 0.16973967559E+01
 0.15557011477E+01 0.13966148103E+01 0.12228784289E+01 0.10383346812E+01 0.84833659182E+00
 0.65976853178E+00 0.48061135720E+00 0.31924355632E+00 0.18372246161E+00 0.81162432916E-01
 0.17189922030E-01 0.60033034202E-01 0.81162432916E-01 0.14333196813E+00 0.24302105352E+00
 0.37476179000E+00 0.53161385431E+00 0.70571140226E+00 0.88890095392E+00 0.10734612289E+01
 0.12527678984E+01 0.14216685438E+01 0.15764127999E+01 0.17142450942E+01 0.18330270793E+01
 0.19312686076E+01 0.20086327215E+01 0.20664419642E+01 0.21066486072E+01 0.21322140887E+01
 0.21472392194E+01 0.21557345128E+01 0.21606966967E+01 0.21638012216E+01 0.21656480432E+01
 0.21662794114E+01 0.21656480432E+01 0.21638012216E+01 0.21606966967E+01 0.21557345128E+01
 0.21472392194E+01 0.21322140887E+01 0.21066486072E+01 0.20664419642E+01 0.20086327215E+01
 0.19312686076E+01 0.18330270793E+01 0.17142450942E+01 0.15764127999E+01 0.14216685438E+01
 0.12527678984E+01 0.10734612289E+01 0.88890095392E+00 0.70571140226E+00 0.53161385431E+00
 0.37476179000E+00 0.24302105352E+00 0.14333196813E+00 0.81162432916E-01 0.16357179736E+00
 0.18372246161E+00 0.24302105352E+00 0.33812245099E+00 0.46380169099E+00 0.61339992693E+00
 0.77937401422E+00 0.95394951271E+00 0.11298285286E+01 0.13007924535E+01 0.14619853183E+01
 0.16097797950E+01 0.17413868850E+01 0.18545793693E+01 0.19478457404E+01 0.20209522644E+01
 0.20752949492E+01 0.21127535685E+01 0.21363927259E+01 0.21502206208E+01 0.21580164613E+01
 0.21625395190E+01 0.21653251457E+01 0.21669513926E+01 0.21675008566E+01 0.21669513926E+01
 0.21653251457E+01 0.21625395190E+01 0.21580164613E+01 0.21502206208E+01 0.21363927259E+01
 0.21127535685E+01 0.20752949492E+01 0.20209522644E+01 0.19478457404E+01 0.18545793693E+01
 0.17413868850E+01 0.16097797950E+01 0.14619853183E+01 0.13007924535E+01 0.11298285286E+01
 0.95394951271E+00 0.77937401422E+00 0.61339992693E+00 0.46380169099E+00 0.33812245099E+00
 0.24302105352E+00 0.18372246161E+00 0.30037875918E+00 0.31924355632E+00 0.37476179000E+00
 0.46380169099E+00 0.58144964826E+00 0.72143079722E+00 0.87665812011E+00 0.10398858015E+01
 0.12043790732E+01 0.13644261636E+01 0.15155130868E+01 0.16541327571E+01 0.17774432222E+01
 0.18831314650E+01 0.19697121204E+01 0.20371339701E+01 0.20868211426E+01 0.21206324786E+01
 0.21417546002E+01 0.21540374980E+01 0.21609343202E+01 0.21648866544E+01 0.21672502546E+01
 0.21685814598E+01 0.21690209854E+01 0.21685814598E+01 0.21672502546E+01 0.21648866544E+01
 0.21609343202E+01 0.21540374980E+01 0.21417546002E+01 0.21206324786E+01 0.20868211426E+01
 0.20371339701E+01 0.19697121204E+01 0.18831314650E+01 0.17774432222E+01 0.16541327571E+01
 0.15155130868E+01 0.13644261636E+01 0.12043790732E+01 0.10398858015E+01 0.87665812011E+00
 0.72143079722E+00 0.58144964826E+00 0.46380169099E+00 0.37476179000E+00 0.31924355632E+00
 0.46328034807E+00 0.48061135720E+00 0.53161385431E+00 0.61339992693E+00 0.72143079722E+00
 0.84991674687E+00 0.99235462542E+00 0.11421543864E+01 0.12932384406E+01 0.14404421097E+01
 0.15795846013E+01 0.17072524919E+01 0.18205482213E+01 0.19171208680E+01 0.19956022546E+01
 0.20562046905E+01 0.21002560885E+01 0.21297416173E+01 0.21479323373E+01 0.21584352354E+01
 0.21642905359E+01 0.21675637766E+01 0.21694115078E+01 0.21703781863E+01 0.21706816367E+01
 0.21703781863E+01 0.21694115078E+01 0.21675637766E+01 0.21642905359E+01 0.21584352354E+01
 0.21479323373E+01 0.21297416173E+01 0.21002560885E+01 0.20562046905E+01 0.19956022546E+01
 0.19171208680E+01 0.18205482213E+01 0.17072524919E+01 0.15795846013E+01 0.14404421097E+01
 0.12932384406E+01 0.11421543864E+01 0.99235462542E+00 0.84991674687E+00 0.72143079722E+00
 0.61339992693E+00 0.53161385431E+00 0.48061135720E+00 0.64415580921E+00 0.65976853178E+00
 0.70571140226E+00 0.77937401422E+00 0.87665812011E+00 0.99235462542E+00 0.11206489370E+01
 0.12556876456E+01 0.13920798692E+01 0.15251834753E+01 0.16511017951E+01 0.17664903009E+01
 0.18684343024E+01 0.19546481189E+01 0.20240070038E+01 0.20769774795E+01 0.21147231380E+01
 0.21394922616E+01 0.21545497271E+01 0.21631627119E+01 0.21678910793E+01 0.21703975285E+01
 0.21716443236E+01 0.21721832959E+01 0.21723272823E+01 0.21721832959E+01 0.21716443236E+01
 0.21703975285E+01 0.21678910793E+01 0.21631627119E+01 0.21545497271E+01 0.21394922616E+01
 0.21147231380E+01 0.20769774795E+01 0.20240070038E+01 0.19546481189E+01 0.18684343024E+01
 0.17664903009E+01 0.16511017951E+01 0.15251834753E+01 0.13920798692E+01 0.12556876456E+01
 0.11206489370E+01 0.99235462542E+00 0.87665812011E+00 0.77937401422E+00 0.70571140226E+00
 0.65976853178E+00 0.83455239253E+00 0.84833659182E+00 0.88890095392E+00 0.95394951271E+00
 0.10398858015E+01 0.11421543864E+01 0.12556876456E+01 0.13753838652E+01 0.14964992712E+01
 0.16148409763E+01 0.17267389222E+01 0.18289280241E+01 0.19185750037E+01 0.19936130923E+01
 0.20532957372E+01 0.20981331774E+01 0.21292915342E+01 0.21492799935E+01 0.21612267879E+01
 0.21679651397E+01 0.21715388692E+01 0.21732181177E+01 0.21737989110E+01 0.21738637539E+01
 0.21738318654E+01 0.21738637539E+01 0.21737989110E+01 0.21732181177E+01 0.21715388692E+01
 0.21679651397E+01 0.21612267879E+01 0.21492799935E+01 0.21292915342E+01 0.20981331774E+01
 0.20532957372E+01 0.19936130923E+01 0.19185750037E+01 0.18289280241E+01 0.17267389222E+01
 0.16148409763E+01 0.14964992712E+01 0.13753838652E+01 0.12556876456E+01 0.11421543864E+01
 0.10398858015E+01 0.95394951271E+00 0.88890095392E+00 0.84833659182E+00 0.10264021710E+01
 0.10383346812E+01 0.10734612289E+01 0.11298285286E+01 0.12043790732E+01 0.12932384406E+01
 0.13920798692E+01 0.14964992712E+01 0.16023089611E+01 0.17056787172E+01 0.18031389996E+01
 0.18915761346E+01 0.19683959593E+01 0.20319276335E+01 0.20818064345E+01 0.21183623556E+01
 0.21430664011E+01 0.21585262204E+01 0.21675855543E+01 0.21725723811E+01 0.21750204917E+01
 0.21758536112E+01 0.21757443629E+01 0.21753231549E+01 0.21751127997E+01 0.21753231549E+01
 0.21757443629E+01 0.21758536112E+01 0.21750204917E+01 0.21725723811E+01 0.21675855543E+01
 0.21585262204E+01 0.21430664011E+01 0.21183623556E+01 0.20818064345E+01 0.20319276335E+01
 0.19683959593E+01 0.18915761346E+01 0.18031389996E+01 0.17056787172E+01 0.16023089611E+01
 0.14964992712E+01 0.13920798692E+01 0.12932384406E+01 0.12043790732E+01 0.11298285286E+01
 0.10734612289E+01 0.10383346812E+01 0.12127314769E+01 0.12228784289E+01 0.12527678984E+01
 0.13007924535E+01 0.13644261636E+01 0.14404421097E+01 0.15251834753E+01 0.16148409763E+01
 0.17056787172E+01 0.17941726533E+01 0.18770892616E+01 0.19516010230E+01 0.20155396462E+01
 0.20677682292E+01 0.21079586787E+01 0.21365493884E+01 0.21553111434E+01 0.21667458538E+01
 0.21732801526E+01 0.21767091159E+01 0.21781086592E+01 0.21781301159E+01 0.21773675151E+01
 0.21764991118E+01 0.21761276472E+01 0.21764991118E+01 0.21773675151E+01 0.21781301159E+01
 0.21781086592E+01 0.21767091159E+01 0.21732801526E+01 0.21667458538E+01 0.21553111434E+01
 0.21365493884E+01 0.21079586787E+01 0.20677682292E+01 0.20155396462E+01 0.19516010230E+01
 0.18770892616E+01 0.17941726533E+01 0.17056787172E+01 0.16148409763E+01 0.15251834753E+01
 0.14404421097E+01 0.13644261636E+01 0.13007924535E+01 0.12527678984E+01 0.12228784289E+01
 0.13881164920E+01 0.13966148103E+01 0.14216685438E+01 0.14619853183E+01 0.15155130868E+01
 0.15795846013E+01 0.16511017951E+01 0.17267389222E+01 0.18031389996E+01 0.18770892616E+01
 0.19456913700E+01 0.20065691517E+01 0.20581394078E+01 0.20995837718E+01 0.21305677137E+01
 0.21519469926E+01 0.21655642455E+01 0.21736230729E+01 0.21780490252E+01 0.21801342885E+01
 0.21805914262E+01 0.21798884271E+01 0.21785750543E+01 0.21773532136E+01 0.21768593091E+01
 0.21773532136E+01 0.21785750543E+01 0.21798884271E+01 0.21805914262E+01 0.21801342885E+01
 0.21780490252E+01 0.21736230729E+01 0.21655642455E+01 0.21519469926E+01 0.21305677137E+01
 0.20995837718E+01 0.20581394078E+01 0.20065691517E+01 0.19456913700E+01 0.18770892616E+01
 0.18031389996E+01 0.17267389222E+01 0.16511017951E+01 0.15795846013E+01 0.15155130868E+01
 0.14619853183E+01 0.14216685438E+01 0.13966148103E+01 0.15486803088E+01 0.15557011477E+01
 0.15764127999E+01 0.16097797950E+01 0.16541327571E+01 0.17072524919E+01 0.17664903009E+01
 0.18289280241E+01 0.18915761346E+01 0.19516010230E+01 0.20065691517E+01 0.20546927938E+01
 0.20948421251E+01 0.21262314443E+01 0.21490060861E+01 0.21642638178E+01 0.21736898132E+01
 0.21790509897E+01 0.21817587119E+01 0.21826900322E+01 0.21823174202E+01 0.21810145207E+01
 0.21793032956E+01 0.21778629840E+01 0.21773009989E+01 0.21778629840E+01 0.21793032956E+01
 0.21810145207E+01 0.21823174202E+01 0.21826900322E+01 0.21817587119E+01 0.21790509897E+01
 0.21736898132E+01 0.21642638178E+01 0.21490060861E+01 0.21262314443E+01 0.20948421251E+01
 0.20546927938E+01 0.20065691517E+01 0.19516010230E+01 0.18915761346E+01 0.18289280241E+01
 0.17664903009E+01 0.17072524919E+01 0.16541327571E+01 0.16097797950E+01 0.15764127999E+01
 0.15557011477E+01 0.16916859509E+01 0.16973967559E+01 0.17142450942E+01 0.17413868850E+01
 0.17774432222E+01 0.18205482213E+01 0.18684343024E+01 0.19185750037E+01 0.19683959593E+01
 0.20155396462E+01 0.20581394078E+01 0.20948421251E+01 0.21246297277E+01 0.21472449934E+01
 0.21632086659E+01 0.21736163725E+01 0.21798216342E+01 0.21830985147E+01 0.21844037121E+01
 0.21843272333E+01 0.21832307163E+01 0.21814677269E+01 0.21795309357E+01 0.21780201815E+01
 0.21774487658E+01 0.21780201815E+01 0.21795309357E+01 0.21814677269E+01 0.21832307163E+01
 0.21843272333E+01 0.21844037121E+01 0.21830985147E+01 0.21798216342E+01 0.21736163725E+01
 0.21632086659E+01 0.21472449934E+01 0.21246297277E+01 0.20948421251E+01 0.20581394078E+01
 0.20155396462E+01 0.19683959593E+01 0.19185750037E+01 0.18684343024E+01 0.18205482213E+01
 0.17774432222E+01 0.17413868850E+01 0.17142450942E+01 0.16973967559E+01 0.18150804976E+01
 0.18196262802E+01 0.18330270793E+01 0.18545793693E+01 0.18831314650E+01 0.19171208680E+01
 0.19546481189E+01 0.19936130923E+01 0.20319276335E+01 0.20677682292E+01 0.20995837718E+01
 0.21262314443E+01 0.21472449934E+01 0.21627971956E+01 0.21735365259E+01 0.21803646956E+01
 0.21842189522E+01 0.21859108419E+01 0.21860540682E+01 0.21850883687E+01 0.21833725137E+01
 0.21812876731E+01 0.21792838647E+01 0.21778319226E+01 0.21773009989E+01 0.21778319226E+01
 0.21792838647E+01 0.21812876731E+01 0.21833725137E+01 0.21850883687E+01 0.21860540682E+01
 0.21859108419E+01 0.21842189522E+01 0.21803646956E+01 0.21735365259E+01 0.21627971956E+01
 0.21472449934E+01 0.21262314443E+01 0.20995837718E+01 0.20677682292E+01 0.20319276335E+01
 0.19936130923E+01 0.19546481189E+01 0.19171208680E+01 0.18831314650E+01 0.18545793693E+01
 0.18330270793E+01 0.18196262802E+01 0.19174169302E+01 0.19209296815E+01 0.19312686076E+01
 0.19478457404E+01 0.19697121204E+01 0.19956022546E+01 0.20240070038E+01 0.20532957372E+01
 0.20818064345E+01 0.21079586787E+01 0.21305677137E+01 0.21490060861E+01 0.21632086659E+01
 0.21735365259E+01 0.21805689397E+01 0.21849152665E+01 0.21871100099E+01 0.21875993649E+01
 0.21867826613E+01 0.21850593207E+01 0.21828482448E+01 0.21805729470E+01 0.21786243844E+01
 0.21773182797E+01 0.21768593091E+01 0.21773182797E+01 0.21786243844E+01 0.21805729470E+01
 0.21828482448E+01 0.21850593207E+01 0.21867826613E+01 0.21875993649E+01 0.21871100099E+01
 0.21849152665E+01 0.21805689397E+01 0.21735365259E+01 0.21632086659E+01 0.21490060861E+01
 0.21305677137E+01 0.21079586787E+01 0.20818064345E+01 0.20532957372E+01 0.20240070038E+01
 0.19956022546E+01 0.19697121204E+01 0.19478457404E+01 0.19312686076E+01 0.19209296815E+01
 0.19982969624E+01 0.20009220174E+01 0.20086327215E+01 0.20209522644E+01 0.20371339701E+01
 0.20562046905E+01 0.20769774795E+01 0.20981331774E+01 0.21183623556E+01 0.21365493884E+01
 0.21519469926E+01 0.21642638178E+01 0.21736163725E+01 0.21803646956E+01 0.21849152665E+01
 0.21875897420E+01 0.21886123301E+01 0.21881925869E+01 0.21866249386E+01 0.21843260927E+01
 0.21817824013E+01 0.21794431119E+01 0.21776285223E+01 0.21765049809E+01 0.21761276472E+01
 0.21765049809E+01 0.21776285223E+01 0.21794431119E+01 0.21817824013E+01 0.21843260927E+01
 0.21866249386E+01 0.21881925869E+01 0.21886123301E+01 0.21875897420E+01 0.21849152665E+01
 0.21803646956E+01 0.21736163725E+01 0.21642638178E+01 0.21519469926E+01 0.21365493884E+01
 0.21183623556E+01 0.20981331774E+01 0.20769774795E+01 0.20562046905E+01 0.20371339701E+01
 0.20209522644E+01 0.20086327215E+01 0.20009220174E+01 0.20589624080E+01 0.20608666314E+01
 0.20664419642E+01 0.20752949492E+01 0.20868211426E+01 0.21002560885E+01 0.21147231380E+01
 0.21292915342E+01 0.21430664011E+01 0.21553111434E+01 0.21655642455E+01 0.21736898132E+01
 0.21798216342E+01 0.21842189522E+01 0.21871100099E+01 0.21886123301E+01 0.21887716823E+01
 0.21876834592E+01 0.21856043798E+01 0.21829689564E+01 0.21802906616E+01 0.21780069889E+01
 0.21763653882E+01 0.21754174046E+01 0.21751127997E+01 0.21754174046E+01 0.21763653882E+01
 0.21780069889E+01 0.21802906616E+01 0.21829689564E+01 0.21856043798E+01 0.21876834592E+01
 0.21887716823E+01 0.21886123301E+01 0.21871100099E+01 0.21842189522E+01 0.21798216342E+01
 0.21736898132E+01 0.21655642455E+01 0.21553111434E+01 0.21430664011E+01 0.21292915342E+01
 0.21147231380E+01 0.21002560885E+01 0.20868211426E+01 0.20752949492E+01 0.20664419642E+01
 0.20608666314E+01 0.21014468799E+01 0.21027753550E+01 0.21066486072E+01 0.21127535685E+01
 0.21206324786E+01 0.21297416173E+01 0.21394922616E+01 0.21492799935E+01 0.21585262204E+01
 0.21667458538E+01 0.21736230729E+01 0.21790509897E+01 0.21830985147E+01 0.21859108419E+01
 0.21875993649E+01 0.21881925869E+01 0.21876834592E+01 0.21861415427E+01 0.21838079153E+01
 0.21810960829E+01 0.21784835434E+01 0.21763547118E+01 0.21748923671E+01 0.21740840340E+01
 0.21738318654E+01 0.21740840340E+01 0.21748923671E+01 0.21763547118E+01 0.21784835434E+01
 0.21810960829E+01 0.21838079153E+01 0.21861415427E+01 0.21876834592E+01 0.21881925869E+01
 0.21875993649E+01 0.21859108419E+01 0.21830985147E+01 0.21790509897E+01 0.21736230729E+01
 0.21667458538E+01 0.21585262204E+01 0.21492799935E+01 0.21394922616E+01 0.21297416173E+01
 0.21206324786E+01 0.21127535685E+01 0.21066486072E+01 0.21027753550E+01 0.21286304473E+01
 0.21295479998E+01 0.21322140887E+01 0.21363927259E+01 0.21417546002E+01 0.21479323373E+01
 0.21545497271E+01 0.21612267879E+01 0.21675855543E+01 0.21732801526E+01 0.21780490252E+01
 0.21817587119E+01 0.21844037121E+01 0.21860540682E+01 0.21867826613E+01 0.21866249386E+01
 0.21856043798E+01 0.21838079153E+01 0.21814527393E+01 0.21788842377E+01 0.21764896006E+01
 0.21745727552E+01 0.21732684701E+01 0.21725507929E+01 0.21723272823E+01 0.21725507929E+01
 0.21732684701E+01 0.21745727552E+01 0.21764896006E+01 0.21788842377E+01 0.21814527393E+01
 0.21838079153E+01 0.21856043798E+01 0.21866249386E+01 0.21867826613E+01 0.21860540682E+01
 0.21844037121E+01 0.21817587119E+01 0.21780490252E+01 0.21732801526E+01 0.21675855543E+01
 0.21612267879E+01 0.21545497271E+01 0.21479323373E+01 0.21417546002E+01 0.21363927259E+01
 0.21322140887E+01 0.21295479998E+01 0.21446739586E+01 0.21453316516E+01 0.21472392194E+01
 0.21502206208E+01 0.21540374980E+01 0.21584352354E+01 0.21631627119E+01 0.21679651397E+01
 0.21725723811E+01 0.21767091159E+01 0.21801342885E+01 0.21826900322E+01 0.21843272333E+01
 0.21850883687E+01 0.21850593207E+01 0.21843260927E+01 0.21829689564E+01 0.21810960829E+01
 0.21788842377E+01 0.21765838535E+01 0.21744701891E+01 0.21727642640E+01 0.21715742773E+01
 0.21708976536E+01 0.21706816367E+01 0.21708976536E+01 0.21715742773E+01 0.21727642640E+01
 0.21744701891E+01 0.21765838535E+01 0.21788842377E+01 0.21810960829E+01 0.21829689564E+01
 0.21843260927E+01 0.21850593207E+01 0.21850883687E+01 0.21843272333E+01 0.21826900322E+01
 0.21801342885E+01 0.21767091159E+01 0.21725723811E+01 0.21679651397E+01 0.21631627119E+01
 0.21584352354E+01 0.21540374980E+01 0.21502206208E+01 0.21472392194E+01 0.21453316516E+01
 0.21537695800E+01 0.21542734629E+01 0.21557345128E+01 0.21580164613E+01 0.21609343202E+01
 0.21642905359E+01 0.21678910793E+01 0.21715388692E+01 0.21750204917E+01 0.21781086592E+01
 0.21805914262E+01 0.21823174202E+01 0.21832307163E+01 0.21833725137E+01 0.21828482448E+01
 0.21817824013E+01 0.21802906616E+01 0.21784835434E+01 0.21764896006E+01 0.21744701891E+01
 0.21726052801E+01 0.21710548027E+01 0.21699218889E+01 0.21692446462E+01 0.21690209854E+01
 0.21692446462E+01 0.21699218889E+01 0.21710548027E+01 0.21726052801E+01 0.21744701891E+01
 0.21764896006E+01 0.21784835434E+01 0.21802906616E+01 0.21817824013E+01 0.21828482448E+01
 0.21833725137E+01 0.21832307163E+01 0.21823174202E+01 0.21805914262E+01 0.21781086592E+01
 0.21750204917E+01 0.21715388692E+01 0.21678910793E+01 0.21642905359E+01 0.21609343202E+01
 0.21580164613E+01 0.21557345128E+01 0.21542734629E+01 0.21591082802E+01 0.21595155921E+01
 0.21606966967E+01 0.21625395190E+01 0.21648866544E+01 0.21675637766E+01 0.21703975285E+01
 0.21732181177E+01 0.21758536112E+01 0.21781301159E+01 0.21798884271E+01 0.21810145207E+01
 0.21814677269E+01 0.21812876731E+01 0.21805729470E+01 0.21794431119E+01 0.21780069889E+01
 0.21763547118E+01 0.21745727552E+01 0.21727642640E+01 0.21710548027E+01 0.21695771441E+01
 0.21684459980E+01 0.21677401581E+01 0.21675008566E+01 0.21677401581E+01 0.21684459980E+01
 0.21695771441E+01 0.21710548027E+01 0.21727642640E+01 0.21745727552E+01 0.21763547118E+01
 0.21780069889E+01 0.21794431119E+01 0.21805729470E+01 0.21812876731E+01 0.21814677269E+01
 0.21810145207E+01 0.21798884271E+01 0.21781301159E+01 0.21758536112E+01 0.21732181177E+01
 0.21703975285E+01 0.21675637766E+01 0.21648866544E+01 0.21625395190E+01 0.21606966967E+01
 0.21595155921E+01 0.21624834091E+01 0.21628215018E+01 0.21638012216E+01 0.21653251457E+01
 0.21672502546E+01 0.21694115078E+01 0.21716443236E+01 0.21737989110E+01 0.21757443629E+01
 0.21773675151E+01 0.21785750543E+01 0.21793032956E+01 0.21795309357E+01 0.21792838647E+01
 0.21786243844E+01 0.21776285223E+01 0.21763653882E+01 0.21748923671E+01 0.21732684701E+01
 0.21715742773E+01 0.21699218889E+01 0.21684459980E+01 0.21672807865E+01 0.21665355747E+01
 0.21662794114E+01 0.21665355747E+01 0.21672807865E+01 0.21684459980E+01 0.21699218889E+01
 0.21715742773E+01 0.21732684701E+01 0.21748923671E+01 0.21763653882E+01 0.21776285223E+01
 0.21786243844E+01 0.21792838647E+01 0.21795309357E+01 0.21793032956E+01 0.21785750543E+01
 0.21773675151E+01 0.21757443629E+01 0.21737989110E+01 0.21716443236E+01 0.21694115078E+01
 0.21672502546E+01 0.21653251457E+01 0.21638012216E+01 0.21628215018E+01 0.21645157051E+01
 0.21648065015E+01 0.21656480432E+01 0.21669513926E+01 0.21685814598E+01 0.21703781863E+01
 0.21721832959E+01 0.21738637539E+01 0.21753231549E+01 0.21764991118E+01 0.21773532136E+01
 0.21778629840E+01 0.21780201815E+01 0.21778319226E+01 0.21773182797E+01 0.21765049809E+01
 0.21754174046E+01 0.21740840340E+01 0.21725507929E+01 0.21708976536E+01 0.21692446462E+01
 0.21677401581E+01 0.21665355747E+01 0.21657577207E+01 0.21654890007E+01 0.21657577207E+01
 0.21665355747E+01 0.21677401581E+01 0.21692446462E+01 0.21708976536E+01 0.21725507929E+01
 0.21740840340E+01 0.21754174046E+01 0.21765049809E+01 0.21773182797E+01 0.21778319226E+01
 0.21780201815E+01 0.21778629840E+01 0.21773532136E+01 0.21764991118E+01 0.21753231549E+01
 0.21738637539E+01 0.21721832959E+01 0.21703781863E+01 0.21685814598E+01 0.21669513926E+01
 0.21656480432E+01 0.21648065015E+01 0.21652156694E+01 0.21654890007E+01 0.21662794114E+01
 0.21675008566E+01 0.21690209854E+01 0.21706816367E+01 0.21723272823E+01 0.21738318654E+01
 0.21751127997E+01 0.21761276472E+01 0.21768593091E+01 0.21773009989E+01 0.21774487658E+01
 0.21773009989E+01 0.21768593091E+01 0.21761276472E+01 0.21751127997E+01 0.21738318654E+01
 0.21723272823E+01 0.21706816367E+01 0.21690209854E+01 0.21675008566E+01 0.21662794114E+01
 0.21654890007E+01 0.21652156694E+01 0.21654890007E+01 0.21662794114E+01 0.21675008566E+01
 0.21690209854E+01 0.21706816367E+01 0.21723272823E+01 0.21738318654E+01 0.21751127997E+01
 0.21761276472E+01 0.21768593091E+01 0.21773009989E+01 0.21774487658E+01 0.21773009989E+01
 0.21768593091E+01 0.21761276472E+01 0.21751127997E+01 0.21738318654E+01 0.21723272823E+01
 0.21706816367E+01 0.21690209854E+01 0.21675008566E+01 0.21662794114E+01 0.21654890007E+01
 0.21645157051E+01 0.21648065015E+01 0.21656480432E+01 0.21669513926E+01 0.21685814598E+01
 0.21703781863E+01 0.21721832959E+01 0.21738637539E+01 0.21753231549E+01 0.21764991118E+01
 0.21773532136E+01 0.21778629840E+01 0.21780201815E+01 0.21778319226E+01 0.21773182797E+01
 0.21765049809E+01 0.21754174046E+01 0.21740840340E+01 0.21725507929E+01 0.21708976536E+01
 0.21692446462E+01 0.21677401581E+01 0.21665355747E+01 0.21657577207E+01 0.21654890007E+01
 0.21657577207E+01 0.21665355747E+01 0.21677401581E+01 0.21692446462E+01 0.21708976536E+01
 0.21725507929E+01 0.21740840340E+01 0.21754174046E+01 0.21765049809E+01 0.21773182797E+01
 0.21778319226E+01 0.21780201815E+01 0.21778629840E+01 0.21773532136E+01 0.21764991118E+01
 0.21753231549E+01 0.21738637539E+01 0.21721832959E+01 0.21703781863E+01 0.21685814598E+01
 0.21669513926E+01 0.21656480432E+01 0.21648065015E+01 0.21624834091E+01 0.21628215018E+01
 0.21638012216E+01 0.21653251457E+01 0.21672502546E+01 0.21694115078E+01 0.21716443236E+01
 0.21737989110E+01 0.21757443629E+01 0.21773675151E+01 0.21785750543E+01 0.21793032956E+01
 0.21795309357E+01 0.21792838647E+01 0.21786243844E+01 0.21776285223E+01 0.21763653882E+01
 0.21748923671E+01 0.21732684701E+01 0.21715742773E+01 0.21699218889E+01 0.21684459980E+01
 0.21672807865E+01 0.21665355747E+01 0.21662794114E+01 0.21665355747E+01 0.21672807865E+01
 0.21684459980E+01 0.21699218889E+01 0.21715742773E+01 0.21732684701E+01 0.21748923671E+01
 0.21763653882E+01 0.21776285223E+01 0.21786243844E+01 0.21792838647E+01 0.21795309357E+01
 0.21793032956E+01 0.21785750543E+01 0.21773675151E+01 0.21757443629E+01 0.21737989110E+01
 0.21716443236E+01 0.21694115078E+01 0.21672502546E+01 0.21653251457E+01 0.21638012216E+01
 0.21628215018E+01 0.21591082802E+01 0.21595155921E+01 0.21606966967E+01 0.21625395190E+01
 0.21648866544E+01 0.21675637766E+01 0.21703975285E+01 0.21732181177E+01 0.21758536112E+01
 0.21781301159E+01 0.21798884271E+01 0.21810145207E+01 0.21814677269E+01 0.21812876731E+01
 0.21805729470E+01 0.21794431119E+01 0.21780069889E+01 0.21763547118E+01 0.21745727552E+01
 0.21727642640E+01 0.21710548027E+01 0.21695771441E+01 0.21684459980E+01 0.21677401581E+01
 0.21675008566E+01 0.21677401581E+01 0.21684459980E+01 0.21695771441E+01 0.21710548027E+01
 0.21727642640E+01 0.21745727552E+01 0.21763547118E+01 0.21780069889E+01 0.21794431119E+01
 0.21805729470E+01 0.21812876731E+01 0.21814677269E+01 0.21810145207E+01 0.21798884271E+01
 0.21781301159E+01 0.21758536112E+01 0.21732181177E+01 0.21703975285E+01 0.21675637766E+01
 0.21648866544E+01 0.21625395190E+01 0.21606966967E+01 0.21595155921E+01 0.21537695800E+01
 0.21542734629E+01 0.21557345128E+01 0.21580164613E+01 0.21609343202E+01 0.21642905359E+01
 0.21678910793E+01 0.21715388692E+01 0.21750204917E+01 0.21781086592E+01 0.21805914262E+01
 0.21823174202E+01 0.21832307163E+01 0.21833725137E+01 0.21828482448E+01 0.21817824013E+01
 0.21802906616E+01 0.21784835434E+01 0.21764896006E+01 0.21744701891E+01 0.21726052801E+01
 0.21710548027E+01 0.21699218889E+01 0.21692446462E+01 0.21690209854E+01 0.21692446462E+01
 0.21699218889E+01 0.21710548027E+01 0.21726052801E+01 0.21744701891E+01 0.21764896006E+01
 0.21784835434E+01 0.21802906616E+01 0.21817824013E+01 0.21828482448E+01 0.21833725137E+01
 0.21832307163E+01 0.21823174202E+01 0.21805914262E+01 0.21781086592E+01 0.21750204917E+01
 0.21715388692E+01 0.21678910793E+01 0.21642905359E+01 0.21609343202E+01 0.21580164613E+01
 0.21557345128E+01 0.21542734629E+01 0.21446739586E+01 0.21453316516E+01 0.21472392194E+01
 0.21502206208E+01 0.21540374980E+01 0.21584352354E+01 0.21631627119E+01 0.21679651397E+01
 0.21725723811E+01 0.21767091159E+01 0.21801342885E+01 0.21826900322E+01 0.21843272333E+01
 0.21850883687E+01 0.21850593207E+01 0.21843260927E+01 0.21829689564E+01 0.21810960829E+01
 0.21788842377E+01 0.21765838535E+01 0.21744701891E+01 0.21727642640E+01 0.21715742773E+01
 0.21708976536E+01 0.21706816367E+01 0.21708976536E+01 0.21715742773E+01 0.21727642640E+01
 0.21744701891E+01 0.21765838535E+01 0.21788842377E+01 0.21810960829E+01 0.21829689564E+01
 0.21843260927E+01 0.21850593207E+01 0.21850883687E+01 0.21843272333E+01 0.21826900322E+01
 0.21801342885E+01 0.21767091159E+01 0.21725723811E+01 0.21679651397E+01 0.21631627119E+01
 0.21584352354E+01 0.21540374980E+01 0.21502206208E+01 0.21472392194E+01 0.21453316516E+01
 0.21286304473E+01 0.21295479998E+01 0.21322140887E+01 0.21363927259E+01 0.21417546002E+01
 0.21479323373E+01 0.21545497271E+01 0.21612267879E+01 0.21675855543E+01 0.21732801526E+01
 0.21780490252E+01 0.21817587119E+01 0.21844037121E+01 0.21860540682E+01 0.21867826613E+01
 0.21866249386E+01 0.21856043798E+01 0.21838079153E+01 0.21814527393E+01 0.21788842377E+01
 0.21764896006E+01 0.21745727552E+01 0.21732684701E+01 0.21725507929E+01 0.21723272823E+01
 0.21725507929E+01 0.21732684701E+01 0.21745727552E+01 0.21764896006E+01 0.21788842377E+01
 0.21814527393E+01 0.21838079153E+01 0.21856043798E+01 0.21866249386E+01 0.21867826613E+01
 0.21860540682E+01 0.21844037121E+01 0.21817587119E+01 0.21780490252E+01 0.21732801526E+01
 0.21675855543E+01 0.21612267879E+01 0.21545497271E+01 0.21479323373E+01 0.21417546002E+01
 0.21363927259E+01 0.21322140887E+01 0.21295479998E+01 0.21014468799E+01 0.21027753550E+01
 0.21066486072E+01 0.21127535685E+01 0.21206324786E+01 0.21297416173E+01 0.21394922616E+01
 0.21492799935E+01 0.21585262204E+01 0.21667458538E+01 0.21736230729E+01 0.21790509897E+01
 0.21830985147E+01 0.21859108419E+01 0.21875993649E+01 0.21881925869E+01 0.21876834592E+01
 0.21861415427E+01 0.21838079153E+01 0.21810960829E+01 0.21784835434E+01 0.21763547118E+01
 0.21748923671E+01 0.21740840340E+01 0.21738318654E+01 0.21740840340E+01 0.21748923671E+01
 0.21763547118E+01 0.21784835434E+01 0.21810960829E+01 0.21838079153E+01 0.21861415427E+01
 0.21876834592E+01 0.21881925869E+01 0.21875993649E+01 0.21859108419E+01 0.21830985147E+01
 0.21790509897E+01 0.21736230729E+01 0.21667458538E+01 0.21585262204E+01 0.21492799935E+01
 0.21394922616E+01 0.21297416173E+01 0.21206324786E+01 0.21127535685E+01 0.21066486072E+01
 0.21027753550E+01 0.20589624080E+01 0.20608666314E+01 0.20664419642E+01 0.20752949492E+01
 0.20868211426E+01 0.21002560885E+01 0.21147231380E+01 0.21292915342E+01 0.21430664011E+01
 0.21553111434E+01 0.21655642455E+01 0.21736898132E+01 0.21798216342E+01 0.21842189522E+01
 0.21871100099E+01 0.21886123301E+01 0.21887716823E+01 0.21876834592E+01 0.21856043798E+01
 0.21829689564E+01 0.21802906616E+01 0.21780069889E+01 0.21763653882E+01 0.21754174046E+01
 0.21751127997E+01 0.21754174046E+01 0.21763653882E+01 0.21780069889E+01 0.21802906616E+01
 0.21829689564E+01 0.21856043798E+01 0.21876834592E+01 0.21887716823E+01 0.21886123301E+01
 0.21871100099E+01 0.21842189522E+01 0.21798216342E+01 0.21736898132E+01 0.21655642455E+01
 0.21553111434E+01 0.21430664011E+01 0.21292915342E+01 0.21147231380E+01 0.21002560885E+01
 0.20868211426E+01 0.20752949492E+01 0.20664419642E+01 0.20608666314E+01 0.19982969624E+01
 0.20009220174E+01 0.20086327215E+01 0.20209522644E+01 0.20371339701E+01 0.20562046905E+01
 0.20769774795E+01 0.20981331774E+01 0.21183623556E+01 0.21365493884E+01 0.21519469926E+01
 0.21642638178E+01 0.21736163725E+01 0.21803646956E+01 0.21849152665E+01 0.21875897420E+01
 0.21886123301E+01 0.21881925869E+01 0.21866249386E+01 0.21843260927E+01 0.21817824013E+01
 0.21794431119E+01 0.21776285223E+01 0.21765049809E+01 0.21761276472E+01 0.21765049809E+01
 0.21776285223E+01 0.21794431119E+01 0.21817824013E+01 0.21843260927E+01 0.21866249386E+01
 0.21881925869E+01 0.21886123301E+01 0.21875897420E+01 0.21849152665E+01 0.21803646956E+01
 0.21736163725E+01 0.21642638178E+01 0.21519469926E+01 0.21365493884E+01 0.21183623556E+01
 0.20981331774E+01 0.20769774795E+01 0.20562046905E+01 0.20371339701E+01 0.20209522644E+01