   2   2   0   0
  0.3925636E+02  0.4282000E-09  0.4282000E-09  0.4282000E-09  0.5000000E-15
   1.0000000000000000E-004
  CAR 
 unknown system                          
     10.52236011     -4.68431801  301      0.48730517      1.00000000
     -4.684  0.0000E+00  0.0000E+00
     -4.634  0.0000E+00  0.0000E+00
     -4.583  0.0000E+00  0.0000E+00
     -4.532  0.0000E+00  0.0000E+00
     -4.482  0.0000E+00  0.0000E+00
     -4.431  0.0000E+00  0.0000E+00
     -4.380  0.0000E+00  0.0000E+00
     -4.329 -0.1711E-32 -0.8672E-34
     -4.279 -0.1098E-30 -0.5653E-32
     -4.228 -0.5749E-29 -0.2971E-30
     -4.177 -0.2644E-27 -0.1370E-28
     -4.127 -0.1070E-25 -0.5559E-27
     -4.076 -0.3809E-24 -0.1986E-25
     -4.025 -0.1194E-22 -0.6250E-24
     -3.975 -0.3293E-21 -0.1732E-22
     -3.924 -0.7999E-20 -0.4228E-21
     -3.873 -0.1710E-18 -0.9093E-20
     -3.823 -0.3142E-17 -0.1683E-18
     -3.772 -0.5172E-16 -0.2790E-17
     -3.721 -0.7530E-15 -0.4096E-16
     -3.671 -0.9658E-14 -0.5305E-15
     -3.620 -0.1091E-12 -0.6061E-14
     -3.569 -0.1085E-11 -0.6107E-13
     -3.518 -0.9504E-11 -0.5428E-12
     -3.468 -0.7327E-10 -0.4257E-11
     -3.417 -0.4971E-09 -0.2945E-10
     -3.366 -0.2965E-08 -0.1798E-09
     -3.316 -0.1554E-07 -0.9675E-09
     -3.265 -0.7147E-07 -0.4590E-08
     -3.214 -0.2878E-06 -0.1918E-07
     -3.164 -0.1013E-05 -0.7051E-07
     -3.113 -0.3100E-05 -0.2276E-06
     -3.062 -0.8206E-05 -0.6436E-06
     -3.012 -0.1861E-04 -0.1587E-05
     -2.961 -0.3551E-04 -0.3386E-05
     -2.910 -0.5498E-04 -0.6174E-05
     -2.860 -0.6255E-04 -0.9344E-05
     -2.809 -0.3050E-04 -0.1089E-04
     -2.758  0.7662E-04 -0.7006E-05
     -2.707  0.2878E-03  0.7582E-05
     -2.657  0.6100E-03  0.3850E-04
     -2.606  0.1021E-02  0.9027E-04
     -2.555  0.1475E-02  0.1650E-03
     -2.505  0.1913E-02  0.2620E-03
     -2.454  0.2286E-02  0.3779E-03
     -2.403  0.2575E-02  0.5084E-03
     -2.353  0.2811E-02  0.6509E-03
     -2.302  0.3047E-02  0.8053E-03
     -2.251  0.3313E-02  0.9733E-03
     -2.201  0.3588E-02  0.1155E-02
     -2.150  0.3815E-02  0.1348E-02
     -2.099  0.3953E-02  0.1549E-02
     -2.048  0.4010E-02  0.1752E-02
     -1.998  0.4045E-02  0.1957E-02
     -1.947  0.4147E-02  0.2167E-02
     -1.896  0.4389E-02  0.2390E-02
     -1.846  0.4768E-02  0.2631E-02
     -1.795  0.5172E-02  0.2894E-02
     -1.744  0.5436E-02  0.3169E-02
     -1.694  0.5438E-02  0.3445E-02
     -1.643  0.5207E-02  0.3709E-02
     -1.592  0.4929E-02  0.3959E-02
     -1.542  0.4857E-02  0.4205E-02
     -1.491  0.5143E-02  0.4466E-02
     -1.440  0.5733E-02  0.4756E-02
     -1.390  0.6381E-02  0.5080E-02
     -1.339  0.6811E-02  0.5425E-02
     -1.288  0.6872E-02  0.5773E-02
     -1.237  0.6605E-02  0.6108E-02
     -1.187  0.6211E-02  0.6423E-02
     -1.136  0.5949E-02  0.6724E-02
     -1.085  0.5998E-02  0.7028E-02
     -1.035  0.6334E-02  0.7349E-02
     -0.984  0.6758E-02  0.7692E-02
     -0.933  0.7049E-02  0.8049E-02
     -0.883  0.7141E-02  0.8411E-02
     -0.832  0.7160E-02  0.8774E-02
     -0.781  0.7303E-02  0.9144E-02
     -0.731  0.7655E-02  0.9532E-02
     -0.680  0.8106E-02  0.9943E-02
     -0.629  0.8426E-02  0.1037E-01
     -0.579  0.8422E-02  0.1080E-01
     -0.528  0.8050E-02  0.1121E-01
     -0.477  0.7439E-02  0.1158E-01
     -0.426  0.6845E-02  0.1193E-01
     -0.376  0.6576E-02  0.1226E-01
     -0.325  0.6854E-02  0.1261E-01
     -0.274  0.7675E-02  0.1300E-01
     -0.224  0.8773E-02  0.1344E-01
     -0.173  0.9758E-02  0.1394E-01
     -0.122  0.1031E-01  0.1446E-01
     -0.072  0.1030E-01  0.1498E-01
     -0.021  0.9810E-02  0.1548E-01
      0.030  0.9084E-02  0.1594E-01
      0.080  0.8421E-02  0.1637E-01
      0.131  0.8054E-02  0.1678E-01
      0.182  0.8049E-02  0.1718E-01
      0.233  0.8297E-02  0.1760E-01
      0.283  0.8619E-02  0.1804E-01
      0.334  0.8923E-02  0.1849E-01
      0.385  0.9266E-02  0.1896E-01
      0.435  0.9762E-02  0.1946E-01
      0.486  0.1040E-01  0.1999E-01
      0.537  0.1097E-01  0.2054E-01
      0.587  0.1118E-01  0.2111E-01
      0.638  0.1089E-01  0.2166E-01
      0.689  0.1027E-01  0.2218E-01
      0.739  0.9732E-02  0.2267E-01
      0.790  0.9683E-02  0.2317E-01
      0.841  0.1022E-01  0.2368E-01
      0.891  0.1100E-01  0.2424E-01
      0.942  0.1151E-01  0.2482E-01
      0.993  0.1141E-01  0.2540E-01
      1.044  0.1078E-01  0.2595E-01
      1.094  0.1013E-01  0.2646E-01
      1.145  0.9965E-02  0.2697E-01
      1.196  0.1048E-01  0.2750E-01
      1.246  0.1140E-01  0.2808E-01
      1.297  0.1219E-01  0.2869E-01
      1.348  0.1247E-01  0.2933E-01
      1.398  0.1224E-01  0.2995E-01
      1.449  0.1183E-01  0.3055E-01
      1.500  0.1162E-01  0.3114E-01
      1.550  0.1171E-01  0.3173E-01
      1.601  0.1187E-01  0.3233E-01
      1.652  0.1179E-01  0.3293E-01
      1.702  0.1134E-01  0.3350E-01
      1.753  0.1069E-01  0.3404E-01
      1.804  0.1011E-01  0.3456E-01
      1.855  0.9724E-02  0.3505E-01
      1.905  0.9470E-02  0.3553E-01
      1.956  0.9279E-02  0.3600E-01
      2.007  0.9242E-02  0.3647E-01
      2.057  0.9573E-02  0.3695E-01
      2.108  0.1043E-01  0.3748E-01
      2.159  0.1174E-01  0.3808E-01
      2.209  0.1321E-01  0.3875E-01
      2.260  0.1447E-01  0.3948E-01
      2.311  0.1524E-01  0.4025E-01
      2.361  0.1543E-01  0.4104E-01
      2.412  0.1511E-01  0.4180E-01
      2.463  0.1436E-01  0.4253E-01
      2.514  0.1319E-01  0.4320E-01
      2.564  0.1168E-01  0.4379E-01
      2.615  0.1011E-01  0.4430E-01
      2.666  0.9070E-02  0.4476E-01
      2.716  0.9127E-02  0.4522E-01
      2.767  0.1047E-01  0.4576E-01
      2.818  0.1270E-01  0.4640E-01
      2.868  0.1507E-01  0.4716E-01
      2.919  0.1687E-01  0.4802E-01
      2.970  0.1769E-01  0.4891E-01
      3.020  0.1743E-01  0.4980E-01
      3.071  0.1615E-01  0.5062E-01
      3.122  0.1408E-01  0.5133E-01
      3.172  0.1168E-01  0.5192E-01
      3.223  0.9680E-02  0.5241E-01
      3.274  0.8823E-02  0.5286E-01
      3.325  0.9456E-02  0.5334E-01
      3.375  0.1127E-01  0.5391E-01
      3.426  0.1342E-01  0.5459E-01
      3.477  0.1495E-01  0.5535E-01
      3.527  0.1529E-01  0.5612E-01
      3.578  0.1450E-01  0.5686E-01
      3.629  0.1317E-01  0.5753E-01
      3.679  0.1215E-01  0.5814E-01
      3.730  0.1203E-01  0.5875E-01
      3.781  0.1281E-01  0.5940E-01
      3.831  0.1387E-01  0.6011E-01
      3.882  0.1434E-01  0.6083E-01
      3.933  0.1376E-01  0.6153E-01
      3.983  0.1246E-01  0.6216E-01
      4.034  0.1130E-01  0.6273E-01
      4.085  0.1110E-01  0.6330E-01
      4.136  0.1199E-01  0.6390E-01
      4.186  0.1335E-01  0.6458E-01
      4.237  0.1430E-01  0.6531E-01
      4.288  0.1433E-01  0.6603E-01
      4.338  0.1355E-01  0.6672E-01
      4.389  0.1254E-01  0.6735E-01
      4.440  0.1188E-01  0.6796E-01
      4.490  0.1184E-01  0.6856E-01
      4.541  0.1235E-01  0.6918E-01
      4.592  0.1309E-01  0.6985E-01
      4.642  0.1372E-01  0.7054E-01
      4.693  0.1397E-01  0.7125E-01
      4.744  0.1363E-01  0.7194E-01
      4.795  0.1267E-01  0.7258E-01
      4.845  0.1127E-01  0.7315E-01
      4.896  0.9866E-02  0.7365E-01
      4.947  0.9059E-02  0.7411E-01
      4.997  0.9308E-02  0.7458E-01
      5.048  0.1067E-01  0.7513E-01
      5.099  0.1271E-01  0.7577E-01
      5.149  0.1476E-01  0.7652E-01
      5.200  0.1621E-01  0.7734E-01
      5.251  0.1682E-01  0.7819E-01
      5.301  0.1657E-01  0.7903E-01
      5.352  0.1559E-01  0.7982E-01
      5.403  0.1409E-01  0.8054E-01
      5.453  0.1242E-01  0.8117E-01
      5.504  0.1099E-01  0.8172E-01
      5.555  0.1011E-01  0.8223E-01
      5.606  0.9762E-02  0.8273E-01
      5.656  0.9725E-02  0.8322E-01
      5.707  0.9803E-02  0.8372E-01
      5.758  0.1003E-01  0.8423E-01
      5.808  0.1058E-01  0.8476E-01
      5.859  0.1157E-01  0.8535E-01
      5.910  0.1285E-01  0.8600E-01
      5.960  0.1403E-01  0.8671E-01
      6.011  0.1464E-01  0.8746E-01
      6.062  0.1441E-01  0.8819E-01
      6.112  0.1342E-01  0.8887E-01
      6.163  0.1206E-01  0.8948E-01
      6.214  0.1078E-01  0.9002E-01
      6.264  0.9856E-02  0.9052E-01
      6.315  0.9241E-02  0.9099E-01
      6.366  0.8733E-02  0.9143E-01
      6.417  0.8220E-02  0.9185E-01
      6.467  0.7804E-02  0.9225E-01
      6.518  0.7709E-02  0.9264E-01
      6.569  0.8081E-02  0.9305E-01
      6.619  0.8875E-02  0.9350E-01
      6.670  0.9879E-02  0.9400E-01
      6.721  0.1080E-01  0.9455E-01
      6.771  0.1134E-01  0.9512E-01
      6.822  0.1127E-01  0.9569E-01
      6.873  0.1053E-01  0.9623E-01
      6.923  0.9250E-02  0.9669E-01
      6.974  0.7714E-02  0.9709E-01
      7.025  0.6238E-02  0.9740E-01
      7.076  0.5038E-02  0.9766E-01
      7.126  0.4180E-02  0.9787E-01
      7.177  0.3625E-02  0.9805E-01
      7.228  0.3291E-02  0.9822E-01
      7.278  0.3093E-02  0.9838E-01
      7.329  0.2945E-02  0.9853E-01
      7.380  0.2761E-02  0.9867E-01
      7.430  0.2485E-02  0.9879E-01
      7.481  0.2137E-02  0.9890E-01
      7.532  0.1816E-02  0.9899E-01
      7.582  0.1645E-02  0.9907E-01
      7.633  0.1682E-02  0.9916E-01
      7.684  0.1874E-02  0.9926E-01
      7.734  0.2083E-02  0.9936E-01
      7.785  0.2163E-02  0.9947E-01
      7.836  0.2044E-02  0.9957E-01
      7.887  0.1752E-02  0.9966E-01
      7.937  0.1372E-02  0.9973E-01
      7.988  0.1002E-02  0.9978E-01
      8.039  0.7127E-03  0.9982E-01
      8.089  0.5346E-03  0.9985E-01
      8.140  0.4488E-03  0.9987E-01
      8.191  0.4002E-03  0.9989E-01
      8.241  0.3374E-03  0.9991E-01
      8.292  0.2510E-03  0.9992E-01
      8.343  0.1752E-03  0.9993E-01
      8.393  0.1507E-03  0.9994E-01
      8.444  0.1858E-03  0.9995E-01
      8.495  0.2465E-03  0.9996E-01
      8.545  0.2825E-03  0.9997E-01
      8.596  0.2629E-03  0.9999E-01
      8.647  0.1940E-03  0.1000E+00
      8.698  0.1080E-03  0.1000E+00
      8.748  0.3762E-04  0.1000E+00
      8.799 -0.2421E-05  0.1000E+00
      8.850 -0.1585E-04  0.1000E+00
      8.900 -0.1462E-04  0.1000E+00
      8.951 -0.9095E-05  0.1000E+00
      9.002 -0.4432E-05  0.1000E+00
      9.052 -0.1778E-05  0.1000E+00
      9.103 -0.6012E-06  0.1000E+00
      9.154 -0.1735E-06  0.1000E+00
      9.204 -0.4303E-07  0.1000E+00
      9.255 -0.9228E-08  0.1000E+00
      9.306 -0.1716E-08  0.1000E+00
      9.357 -0.2776E-09  0.1000E+00
      9.407 -0.3911E-10  0.1000E+00
      9.458 -0.4809E-11  0.1000E+00
      9.509 -0.5165E-12  0.1000E+00
      9.559 -0.4851E-13  0.1000E+00
      9.610 -0.3986E-14  0.1000E+00
      9.661 -0.2868E-15  0.1000E+00
      9.711 -0.1818E-16  0.1000E+00
      9.762 -0.9571E-18  0.1000E+00
      9.813  0.0000E+00  0.1000E+00
      9.863  0.0000E+00  0.1000E+00
      9.914  0.0000E+00  0.1000E+00
      9.965  0.0000E+00  0.1000E+00
     10.015  0.0000E+00  0.1000E+00
     10.066  0.0000E+00  0.1000E+00
     10.117  0.0000E+00  0.1000E+00
     10.168  0.0000E+00  0.1000E+00
     10.218  0.0000E+00  0.1000E+00
     10.269  0.0000E+00  0.1000E+00
     10.320  0.0000E+00  0.1000E+00
     10.370  0.0000E+00  0.1000E+00
     10.421  0.0000E+00  0.1000E+00
     10.472  0.0000E+00  0.1000E+00
     10.522  0.0000E+00  0.1000E+00
