   2   2   0   0
  0.3925636E+02  0.4282000E-09  0.4282000E-09  0.4282000E-09  0.5000000E-15
   1.0000000000000000E-004
  CAR 
 unknown system                          
     10.57451172     -4.62805975  301      0.65680233      1.00000000
     -4.628  0.0000E+00  0.0000E+00
     -4.577  0.0000E+00  0.0000E+00
     -4.527  0.0000E+00  0.0000E+00
     -4.476  0.0000E+00  0.0000E+00
     -4.425  0.0000E+00  0.0000E+00
     -4.375  0.0000E+00  0.0000E+00
     -4.324  0.0000E+00  0.0000E+00
     -4.273 -0.1698E-32 -0.8605E-34
     -4.223 -0.1073E-30 -0.5524E-32
     -4.172 -0.5602E-29 -0.2894E-30
     -4.121 -0.2570E-27 -0.1331E-28
     -4.071 -0.1038E-25 -0.5391E-27
     -4.020 -0.3686E-24 -0.1922E-25
     -3.969 -0.1152E-22 -0.6032E-24
     -3.919 -0.3171E-21 -0.1667E-22
     -3.868 -0.7682E-20 -0.4059E-21
     -3.817 -0.1639E-18 -0.8709E-20
     -3.767 -0.3008E-17 -0.1611E-18
     -3.716 -0.4927E-16 -0.2658E-17
     -3.665 -0.7157E-15 -0.3893E-16
     -3.615 -0.9157E-14 -0.5029E-15
     -3.564 -0.1032E-12 -0.5732E-14
     -3.513 -0.1024E-11 -0.5762E-13
     -3.463 -0.8948E-11 -0.5111E-12
     -3.412 -0.6885E-10 -0.4000E-11
     -3.361 -0.4663E-09 -0.2763E-10
     -3.311 -0.2778E-08 -0.1684E-09
     -3.260 -0.1454E-07 -0.9053E-09
     -3.209 -0.6684E-07 -0.4292E-08
     -3.158 -0.2692E-06 -0.1793E-07
     -3.108 -0.9473E-06 -0.6594E-07
     -3.057 -0.2902E-05 -0.2130E-06
     -3.006 -0.7694E-05 -0.6029E-06
     -2.956 -0.1747E-04 -0.1488E-05
     -2.905 -0.3341E-04 -0.3182E-05
     -2.854 -0.5187E-04 -0.5810E-05
     -2.804 -0.5919E-04 -0.8810E-05
     -2.753 -0.2923E-04 -0.1029E-04
     -2.702  0.7140E-04 -0.6673E-05
     -2.652  0.2697E-03  0.6993E-05
     -2.601  0.5718E-03  0.3597E-04
     -2.550  0.9578E-03  0.8451E-04
     -2.500  0.1387E-02  0.1548E-03
     -2.449  0.1806E-02  0.2463E-03
     -2.398  0.2166E-02  0.3561E-03
     -2.348  0.2443E-02  0.4798E-03
     -2.297  0.2655E-02  0.6144E-03
     -2.246  0.2858E-02  0.7592E-03
     -2.196  0.3099E-02  0.9163E-03
     -2.145  0.3369E-02  0.1087E-02
     -2.094  0.3615E-02  0.1270E-02
     -2.044  0.3783E-02  0.1462E-02
     -1.993  0.3859E-02  0.1658E-02
     -1.942  0.3878E-02  0.1854E-02
     -1.892  0.3912E-02  0.2052E-02
     -1.841  0.4048E-02  0.2257E-02
     -1.790  0.4338E-02  0.2477E-02
     -1.740  0.4744E-02  0.2718E-02
     -1.689  0.5129E-02  0.2978E-02
     -1.638  0.5327E-02  0.3248E-02
     -1.588  0.5250E-02  0.3514E-02
     -1.537  0.4963E-02  0.3765E-02
     -1.486  0.4673E-02  0.4002E-02
     -1.436  0.4628E-02  0.4236E-02
     -1.385  0.4957E-02  0.4488E-02
     -1.334  0.5575E-02  0.4770E-02
     -1.283  0.6227E-02  0.5086E-02
     -1.233  0.6646E-02  0.5422E-02
     -1.182  0.6697E-02  0.5762E-02
     -1.131  0.6422E-02  0.6087E-02
     -1.081  0.6006E-02  0.6392E-02
     -1.030  0.5700E-02  0.6680E-02
     -0.979  0.5698E-02  0.6969E-02
     -0.929  0.6014E-02  0.7274E-02
     -0.878  0.6465E-02  0.7602E-02
     -0.827  0.6806E-02  0.7946E-02
     -0.777  0.6918E-02  0.8297E-02
     -0.726  0.6890E-02  0.8646E-02
     -0.675  0.6929E-02  0.8997E-02
     -0.625  0.7188E-02  0.9362E-02
     -0.574  0.7634E-02  0.9748E-02
     -0.523  0.8065E-02  0.1016E-01
     -0.473  0.8251E-02  0.1058E-01
     -0.422  0.8076E-02  0.1098E-01
     -0.371  0.7580E-02  0.1137E-01
     -0.321  0.6938E-02  0.1172E-01
     -0.270  0.6412E-02  0.1205E-01
     -0.219  0.6286E-02  0.1236E-01
     -0.169  0.6725E-02  0.1270E-01
     -0.118  0.7651E-02  0.1309E-01
     -0.067  0.8754E-02  0.1354E-01
     -0.017  0.9655E-02  0.1402E-01
      0.034  0.1009E-01  0.1454E-01
      0.085  0.9990E-02  0.1504E-01
      0.135  0.9458E-02  0.1552E-01
      0.186  0.8727E-02  0.1596E-01
      0.237  0.8082E-02  0.1637E-01
      0.287  0.7739E-02  0.1677E-01
      0.338  0.7758E-02  0.1716E-01
      0.389  0.8022E-02  0.1757E-01
      0.439  0.8346E-02  0.1799E-01
      0.490  0.8616E-02  0.1842E-01
      0.541  0.8886E-02  0.1888E-01
      0.591  0.9300E-02  0.1935E-01
      0.642  0.9909E-02  0.1985E-01
      0.693  0.1055E-01  0.2038E-01
      0.744  0.1091E-01  0.2094E-01
      0.794  0.1078E-01  0.2148E-01
      0.845  0.1021E-01  0.2200E-01
      0.896  0.9559E-02  0.2248E-01
      0.946  0.9260E-02  0.2295E-01
      0.997  0.9572E-02  0.2344E-01
      1.048  0.1034E-01  0.2396E-01
      1.098  0.1109E-01  0.2452E-01
      1.149  0.1133E-01  0.2510E-01
      1.200  0.1092E-01  0.2565E-01
      1.250  0.1018E-01  0.2617E-01
      1.301  0.9656E-02  0.2666E-01
      1.352  0.9773E-02  0.2715E-01
      1.402  0.1052E-01  0.2769E-01
      1.453  0.1149E-01  0.2827E-01
      1.504  0.1216E-01  0.2888E-01
      1.554  0.1223E-01  0.2950E-01
      1.605  0.1183E-01  0.3010E-01
      1.656  0.1136E-01  0.3068E-01
      1.706  0.1115E-01  0.3124E-01
      1.757  0.1124E-01  0.3181E-01
      1.808  0.1138E-01  0.3239E-01
      1.858  0.1127E-01  0.3296E-01
      1.909  0.1081E-01  0.3351E-01
      1.960  0.1020E-01  0.3403E-01
      2.010  0.9705E-02  0.3452E-01
      2.061  0.9409E-02  0.3500E-01
      2.112  0.9203E-02  0.3546E-01
      2.162  0.8970E-02  0.3592E-01
      2.213  0.8777E-02  0.3636E-01
      2.264  0.8869E-02  0.3681E-01
      2.314  0.9479E-02  0.3729E-01
      2.365  0.1064E-01  0.3783E-01
      2.416  0.1214E-01  0.3845E-01
      2.466  0.1360E-01  0.3913E-01
      2.517  0.1466E-01  0.3988E-01
      2.568  0.1512E-01  0.4064E-01
      2.618  0.1500E-01  0.4140E-01
      2.669  0.1443E-01  0.4213E-01
      2.720  0.1348E-01  0.4282E-01
      2.771  0.1219E-01  0.4344E-01
      2.821  0.1065E-01  0.4398E-01
      2.872  0.9218E-02  0.4444E-01
      2.923  0.8458E-02  0.4487E-01
      2.973  0.8866E-02  0.4532E-01
      3.024  0.1050E-01  0.4585E-01
      3.075  0.1287E-01  0.4650E-01
      3.125  0.1526E-01  0.4728E-01
      3.176  0.1700E-01  0.4814E-01
      3.227  0.1773E-01  0.4904E-01
      3.277  0.1735E-01  0.4992E-01
      3.328  0.1591E-01  0.5072E-01
      3.379  0.1364E-01  0.5141E-01
      3.429  0.1108E-01  0.5198E-01
      3.480  0.9011E-02  0.5243E-01
      3.531  0.8152E-02  0.5285E-01
      3.581  0.8803E-02  0.5329E-01
      3.632  0.1061E-01  0.5383E-01
      3.683  0.1270E-01  0.5447E-01
      3.733  0.1415E-01  0.5519E-01
      3.784  0.1444E-01  0.5592E-01
      3.835  0.1363E-01  0.5661E-01
      3.885  0.1230E-01  0.5724E-01
      3.936  0.1126E-01  0.5781E-01
      3.987  0.1116E-01  0.5837E-01
      4.037  0.1216E-01  0.5899E-01
      4.088  0.1375E-01  0.5969E-01
      4.139  0.1493E-01  0.6044E-01
      4.189  0.1482E-01  0.6119E-01
      4.240  0.1327E-01  0.6187E-01
      4.291  0.1108E-01  0.6243E-01
      4.341  0.9506E-02  0.6291E-01
      4.392  0.9488E-02  0.6339E-01
      4.443  0.1100E-01  0.6395E-01
      4.493  0.1311E-01  0.6461E-01
      4.544  0.1458E-01  0.6535E-01
      4.595  0.1470E-01  0.6610E-01
      4.646  0.1363E-01  0.6679E-01
      4.696  0.1221E-01  0.6740E-01
      4.747  0.1131E-01  0.6798E-01
      4.798  0.1125E-01  0.6855E-01
      4.848  0.1179E-01  0.6915E-01
      4.899  0.1246E-01  0.6978E-01
      4.950  0.1292E-01  0.7043E-01
      5.000  0.1303E-01  0.7109E-01
      5.051  0.1274E-01  0.7174E-01
      5.102  0.1204E-01  0.7235E-01
      5.152  0.1100E-01  0.7291E-01
      5.203  0.9894E-02  0.7341E-01
      5.254  0.9175E-02  0.7387E-01
      5.304  0.9255E-02  0.7434E-01
      5.355  0.1025E-01  0.7486E-01
      5.406  0.1189E-01  0.7546E-01
      5.456  0.1365E-01  0.7615E-01
      5.507  0.1503E-01  0.7692E-01
      5.558  0.1579E-01  0.7772E-01
      5.608  0.1593E-01  0.7852E-01
      5.659  0.1550E-01  0.7931E-01
      5.710  0.1454E-01  0.8005E-01
      5.760  0.1316E-01  0.8071E-01
      5.811  0.1164E-01  0.8130E-01
      5.862  0.1035E-01  0.8183E-01
      5.912  0.9584E-02  0.8231E-01
      5.963  0.9323E-02  0.8279E-01
      6.014  0.9360E-02  0.8326E-01
      6.064  0.9521E-02  0.8374E-01
      6.115  0.9837E-02  0.8424E-01
      6.166  0.1046E-01  0.8477E-01
      6.216  0.1146E-01  0.8535E-01
      6.267  0.1261E-01  0.8599E-01
      6.318  0.1349E-01  0.8667E-01
      6.368  0.1370E-01  0.8737E-01
      6.419  0.1311E-01  0.8803E-01
      6.470  0.1199E-01  0.8864E-01
      6.520  0.1081E-01  0.8919E-01
      6.571  0.9974E-02  0.8969E-01
      6.622  0.9567E-02  0.9018E-01
      6.673  0.9357E-02  0.9065E-01
      6.723  0.9013E-02  0.9111E-01
      6.774  0.8397E-02  0.9154E-01
      6.825  0.7696E-02  0.9193E-01
      6.875  0.7298E-02  0.9230E-01
      6.926  0.7514E-02  0.9268E-01
      6.977  0.8372E-02  0.9310E-01
      7.027  0.9596E-02  0.9359E-01
      7.078  0.1074E-01  0.9413E-01
      7.129  0.1140E-01  0.9471E-01
      7.179  0.1134E-01  0.9528E-01
      7.230  0.1058E-01  0.9582E-01
      7.281  0.9360E-02  0.9629E-01
      7.331  0.8035E-02  0.9670E-01
      7.382  0.6882E-02  0.9705E-01
      7.433  0.6000E-02  0.9735E-01
      7.483  0.5317E-02  0.9762E-01
      7.534  0.4708E-02  0.9786E-01
      7.585  0.4114E-02  0.9807E-01
      7.635  0.3579E-02  0.9825E-01
      7.686  0.3180E-02  0.9841E-01
      7.737  0.2927E-02  0.9856E-01
      7.787  0.2732E-02  0.9870E-01
      7.838  0.2479E-02  0.9883E-01
      7.889  0.2127E-02  0.9893E-01
      7.939  0.1749E-02  0.9902E-01
      7.990  0.1483E-02  0.9910E-01
      8.041  0.1429E-02  0.9917E-01
      8.091  0.1583E-02  0.9925E-01
      8.142  0.1831E-02  0.9934E-01
      8.193  0.2023E-02  0.9945E-01
      8.243  0.2064E-02  0.9955E-01
      8.294  0.1946E-02  0.9965E-01
      8.345  0.1718E-02  0.9974E-01
      8.395  0.1434E-02  0.9981E-01
      8.446  0.1140E-02  0.9987E-01
      8.497  0.8730E-03  0.9991E-01
      8.548  0.6585E-03  0.9994E-01
      8.598  0.4934E-03  0.9997E-01
      8.649  0.3545E-03  0.9999E-01
      8.700  0.2251E-03  0.1000E+00
      8.750  0.1103E-03  0.1000E+00
      8.801  0.2672E-04  0.1000E+00
      8.852 -0.1724E-04  0.1000E+00
      8.902 -0.2889E-04  0.1000E+00
      8.953 -0.2351E-04  0.1000E+00
      9.004 -0.1402E-04  0.1000E+00
      9.054 -0.6710E-05  0.1000E+00
      9.105 -0.2668E-05  0.1000E+00
      9.156 -0.8977E-06  0.1000E+00
      9.206 -0.2583E-06  0.1000E+00
      9.257 -0.6396E-07  0.1000E+00
      9.308 -0.1370E-07  0.1000E+00
      9.358 -0.2546E-08  0.1000E+00
      9.409 -0.4115E-09  0.1000E+00
      9.460 -0.5795E-10  0.1000E+00
      9.510 -0.7123E-11  0.1000E+00
      9.561 -0.7649E-12  0.1000E+00
      9.612 -0.7183E-13  0.1000E+00
      9.662 -0.5902E-14  0.1000E+00
      9.713 -0.4250E-15  0.1000E+00
      9.764 -0.2680E-16  0.1000E+00
      9.814 -0.1436E-17  0.1000E+00
      9.865  0.0000E+00  0.1000E+00
      9.916  0.0000E+00  0.1000E+00
      9.966  0.0000E+00  0.1000E+00
     10.017  0.0000E+00  0.1000E+00
     10.068  0.0000E+00  0.1000E+00
     10.118  0.0000E+00  0.1000E+00
     10.169  0.0000E+00  0.1000E+00
     10.220  0.0000E+00  0.1000E+00
     10.270  0.0000E+00  0.1000E+00
     10.321  0.0000E+00  0.1000E+00
     10.372  0.0000E+00  0.1000E+00
     10.422  0.0000E+00  0.1000E+00
     10.473  0.0000E+00  0.1000E+00
     10.524  0.0000E+00  0.1000E+00
     10.575  0.0000E+00  0.1000E+00
