    2    2  100    1
  0.3925636E+02  0.4282000E-09  0.4282000E-09  0.4282000E-09  0.5000000E-15
   1.0000000000000000E-004
  CAR 
 unknown system                          
      2     84      5

  0.1262379E-14  0.1262379E-14  0.1262379E-14  0.4551661E-03
    1       -2.684318   1.000000
    2        4.898515  -0.000000
    3        4.898515  -0.000000
    4        5.180404  -0.000000
    5        5.180404  -0.000000

  0.7692308E-01  0.1262379E-14  0.1262379E-14  0.2730997E-02
    1       -2.634387   1.000000
    2        4.041954  -0.000000
    3        4.946893  -0.000000
    4        5.222725  -0.000000
    5        5.222725  -0.000000

  0.1538462E+00  0.1262379E-14  0.1262379E-14  0.2730997E-02
    1       -2.484818   1.000000
    2        3.054926  -0.000000
    3        5.092029  -0.000000
    4        5.349783  -0.000000
    5        5.349783  -0.000000

  0.2307692E+00  0.1262379E-14  0.1262379E-14  0.2730997E-02
    1       -2.236318   1.000000
    2        2.110687  -0.000000
    3        5.333905  -0.000000
    4        5.561854  -0.000000
    5        5.561854  -0.000000

  0.3076923E+00  0.1262379E-14  0.1262379E-14  0.2730997E-02
    1       -1.890055   1.000000
    2        1.233041  -0.000001
    3        5.672495  -0.000000
    4        5.859357  -0.000000
    5        5.859357  -0.000000

  0.3846154E+00  0.1262379E-14  0.1262379E-14  0.2730997E-02
    1       -1.447657   1.000000
    2        0.432955   0.720830
    3        6.107759   0.000000
    4        6.242831   0.000000
    5        6.242831   0.000000

  0.4615385E+00  0.1262379E-14  0.1262379E-14  0.2730997E-02
    1       -0.911187   1.000000
    2       -0.283231   1.000000
    3        6.639629   0.000000
    4        6.712830   0.000000
    5        6.712830   0.000000

  0.7692308E-01  0.7692308E-01  0.1262379E-14  0.5461994E-02
    1       -2.584487   1.000000
    2        3.939760  -0.000000
    3        4.289553  -0.000000
    4        5.265046  -0.000000
    5        5.583627  -0.000000

  0.1538462E+00  0.7692308E-01  0.1262379E-14  0.1092399E-01
    1       -2.435040   1.000000
    2        3.086822  -0.000000
    3        4.298563  -0.000000
    4        5.392102  -0.000000
    5        5.778684  -0.000000

  0.2307692E+00  0.7692308E-01  0.1262379E-14  0.1092399E-01
    1       -2.186739   1.000000
    2        2.153604  -0.000000
    3        4.516810  -0.000000
    4        5.604162  -0.000000
    5        6.026941   0.000000

  0.3076923E+00  0.7692308E-01  0.1262379E-14  0.1092399E-01
    1       -1.840749   1.000000
    2        1.278950  -0.000000
    3        4.833665  -0.000000
    4        5.901633  -0.000000
    5        6.361977   0.000000

  0.3846154E+00  0.7692308E-01  0.1262379E-14  0.1092399E-01
    1       -1.398699   1.000000
    2        0.480157   0.530227
    3        5.243041  -0.000000
    4        6.285040   0.000000
    5        6.787856   0.000000

  0.4615385E+00  0.7692308E-01  0.1262379E-14  0.1092399E-01
    1       -0.862666   1.000000
    2       -0.235264   1.000002
    3        5.743335  -0.000000
    4        6.333538   0.000000
    5        6.754906   0.000000

  0.1538462E+00  0.1538462E+00  0.1262379E-14  0.5461994E-02
    1       -2.285941   1.000000
    2        3.037617  -0.000000
    3        3.503228  -0.000000
    4        5.519144  -0.000000
    5        6.031977   0.000000

  0.2307692E+00  0.1538462E+00  0.1262379E-14  0.1092399E-01
    1       -2.038231   1.000000
    2        2.273816  -0.000000
    3        3.552039  -0.000000
    4        5.731153  -0.000000
    5        6.305197   0.000000

  0.3076923E+00  0.1538462E+00  0.1262379E-14  0.1092399E-01
    1       -1.693064   1.000000
    2        1.415151  -0.000000
    3        3.854381  -0.000000
    4        6.028506   0.000000
    5        6.657554   0.000000

  0.3846154E+00  0.1538462E+00  0.1262379E-14  0.1092399E-01
    1       -1.252060   1.000000
    2        0.621235   0.051173
    3        4.261453  -0.000000
    4        6.035092   0.000000
    5        6.411654   0.000000

  0.4615385E+00  0.1538462E+00  0.1262379E-14  0.1092399E-01
    1       -0.717352   1.000000
    2       -0.091667   1.000166
    3        4.762414  -0.000000
    4        5.354270  -0.000000
    5        6.881002   0.000000

  0.2307692E+00  0.2307692E+00  0.1262379E-14  0.5461994E-02
    1       -1.791492   1.000000
    2        2.316293  -0.000000
    3        2.796555  -0.000000
    4        5.943031  -0.000000
    5        6.727148   0.000000

  0.3076923E+00  0.2307692E+00  0.1262379E-14  0.1092399E-01
    1       -1.447691   1.000000
    2        1.631747  -0.000000
    3        2.928480  -0.000000
    4        5.874579  -0.000000
    5        6.240078   0.000000

  0.3846154E+00  0.2307692E+00  0.1262379E-14  0.1092399E-01
    1       -1.008468   1.000000
    2        0.853977  -0.013182
    3        3.324325  -0.000000
    4        5.104075  -0.000000
    5        6.622569   0.000000

  0.4615385E+00  0.2307692E+00  0.1262379E-14  0.1092399E-01
    1       -0.476031   1.000000
    2        0.146507   1.018374
    3        3.825493  -0.000000
    4        7.090560   0.000000
    5        7.919907   0.000000

  0.3076923E+00  0.3076923E+00  0.1262379E-14  0.5461994E-02
    1       -1.105813   1.000000
    2        1.776410  -0.000000
    3        2.236379  -0.000000
    4        6.536423   0.000000
    5        7.304137   0.000000

  0.3846154E+00  0.3076923E+00  0.1262379E-14  0.1092399E-01
    1       -0.669152   1.000000
    2        1.168901  -0.000008
    3        2.468251  -0.000000
    4        6.917371   0.000000
    5        7.745301   0.000000

  0.4615385E+00  0.3076923E+00  0.1262379E-14  0.1092399E-01
    1       -0.140214   1.000042
    2        0.476703   0.544793
    3        2.961081  -0.000000
    4        3.557107  -0.000000
    5        7.381928   0.000000

  0.3846154E+00  0.3846154E+00  0.1262379E-14  0.5461994E-02
    1       -0.236099   1.000002
    2        1.417155  -0.000000
    3        1.851593  -0.000000
    4        3.466748  -0.000000
    5        7.294682   0.000000

  0.4615385E+00  0.3846154E+00  0.1262379E-14  0.1092399E-01
    1        0.287128   1.025219
    2        0.889550  -0.007709
    3        2.187610  -0.000000
    4        2.777187  -0.000000
    5        7.749706   0.000000

  0.4615385E+00  0.4615385E+00  0.1262379E-14  0.5461994E-02
    1        0.796154  -0.025643
    2        1.237740  -0.000001
    3        1.656193  -0.000000
    4        2.093422  -0.000000
    5        8.170280   0.000000

  0.7692308E-01  0.7692308E-01  0.7692308E-01  0.3641329E-02
    1       -2.534635   1.000000
    2        3.985291  -0.000000
    3        3.985291  -0.000000
    4        4.777869  -0.000000
    5        6.370574   0.000000

  0.1538462E+00  0.7692308E-01  0.7692308E-01  0.1092399E-01
    1       -2.385300   1.000000
    2        3.120820  -0.000000
    3        4.121888  -0.000000
    4        4.785449  -0.000000
    5        6.506170   0.000000

  0.2307692E+00  0.7692308E-01  0.7692308E-01  0.1092399E-01
    1       -2.137198   1.000000
    2        2.196546  -0.000000
    3        4.349552  -0.000000
    4        4.987729  -0.000000
    5        6.732439   0.000000

  0.3076923E+00  0.7692308E-01  0.7692308E-01  0.1092399E-01
    1       -1.791483   1.000000
    2        1.324795  -0.000000
    3        4.668287  -0.000000
    4        5.295279  -0.000000
    5        7.049764   0.000000

  0.3846154E+00  0.7692308E-01  0.7692308E-01  0.1092399E-01
    1       -1.349781   1.000000
    2        0.527301   0.334457
    3        5.078090  -0.000000
    4        5.695226  -0.000000
    5        6.853199   0.000000

  0.4615385E+00  0.7692308E-01  0.7692308E-01  0.1092399E-01
    1       -0.814187   1.000000
    2       -0.187343   1.000010
    3        5.578933  -0.000000
    4        6.170726   0.000000
    5        6.183288   0.000000

  0.1538462E+00  0.1538462E+00  0.7692308E-01  0.1092399E-01
    1       -2.236323   1.000000
    2        3.082815  -0.000000
    3        3.493477  -0.000000
    4        4.724042  -0.000000
    5        6.914865   0.000000

  0.2307692E+00  0.1538462E+00  0.7692308E-01  0.2184797E-01
    1       -1.988806   1.000000
    2        2.317073  -0.000000
    3        3.566810  -0.000000
    4        4.921126  -0.000000
    5        7.187381   0.000000

  0.3076923E+00  0.1538462E+00  0.7692308E-01  0.2184797E-01
    1       -1.643915   1.000000
    2        1.460806  -0.000000
    3        3.871881  -0.000000
    4        5.229642  -0.000000
    5        6.818784   0.000000

  0.3846154E+00  0.1538462E+00  0.7692308E-01  0.2184797E-01
    1       -1.203266   1.000000
    2        0.668206  -0.012169
    3        4.278934  -0.000000
    4        5.632313  -0.000000
    5        6.051086   0.000000

  0.4615385E+00  0.1538462E+00  0.7692308E-01  0.2184797E-01
    1       -0.669002   1.000000
    2       -0.043892   1.000561
    3        4.779276  -0.000000
    4        5.370530  -0.000000
    5        6.123970   0.000000

  0.2307692E+00  0.2307692E+00  0.7692308E-01  0.1092399E-01
    1       -1.742266   1.000000
    2        2.361301  -0.000000
    3        2.830797  -0.000000
    4        5.118545  -0.000000
    5        6.758235   0.000000

  0.3076923E+00  0.2307692E+00  0.7692308E-01  0.2184797E-01
    1       -1.398739   1.000000
    2        1.677081  -0.000000
    3        2.967201  -0.000000
    4        5.426383  -0.000000
    5        5.909295  -0.000000

  0.3846154E+00  0.2307692E+00  0.7692308E-01  0.2184797E-01
    1       -0.959878   1.000000
    2        0.900635  -0.006408
    3        3.363077  -0.000000
    4        5.140339  -0.000000
    5        5.827674  -0.000000

  0.4615385E+00  0.2307692E+00  0.7692308E-01  0.2184797E-01
    1       -0.427903   1.000000
    2        0.194031   1.029122
    3        3.863629  -0.000000
    4        4.457323  -0.000000
    5        6.317020   0.000000

  0.3076923E+00  0.3076923E+00  0.7692308E-01  0.1092399E-01
    1       -1.057145   1.000000
    2        1.821287  -0.000000
    3        2.280377  -0.000000
    4        5.058308  -0.000000
    5        5.732216  -0.000000

  0.3846154E+00  0.3076923E+00  0.7692308E-01  0.2184797E-01
    1       -0.620857   1.000000
    2        1.215003  -0.000002
    3        2.512492  -0.000000
    4        4.286131  -0.000000
    5        6.130077   0.000000

  0.4615385E+00  0.3076923E+00  0.7692308E-01  0.2184797E-01
    1       -0.092415   1.000163
    2        0.523825   0.348291
    3        3.004662  -0.000000
    4        3.599832  -0.000000
    5        6.613336   0.000000

  0.3846154E+00  0.3846154E+00  0.7692308E-01  0.1092399E-01
    1       -0.188212   1.000010
    2        1.461946  -0.000000
    3        1.898717  -0.000000
    4        3.510457  -0.000000
    5        6.521474   0.000000

  0.4615385E+00  0.3846154E+00  0.7692308E-01  0.2184797E-01
    1        0.334452   0.980333
    2        0.935988  -0.003371
    3        2.233559  -0.000000
    4        2.822123  -0.000000
    5        6.990627   0.000000

  0.4615385E+00  0.4615385E+00  0.7692308E-01  0.1092399E-01
    1        0.842692  -0.015334
    2        1.282491  -0.000000
    3        1.704386  -0.000000
    4        2.139789  -0.000000
    5        7.415370   0.000000

  0.1538462E+00  0.1538462E+00  0.1538462E+00  0.3641329E-02
    1       -2.087700   1.000000
    2        3.218443  -0.000000
    3        3.218443  -0.000000
    4        4.123184  -0.000000
    5        8.522360   0.000000

  0.2307692E+00  0.1538462E+00  0.1538462E+00  0.1092399E-01
    1       -1.840766   1.000000
    2        2.440000  -0.000000
    3        3.444594  -0.000000
    4        4.177495  -0.000000
    5        7.573874   0.000000

  0.3076923E+00  0.1538462E+00  0.1538462E+00  0.1092399E-01
    1       -1.496700   1.000000
    2        1.596274  -0.000000
    3        3.761420  -0.000000
    4        4.464099  -0.000000
    5        6.711551   0.000000

  0.3846154E+00  0.1538462E+00  0.1538462E+00  0.1092399E-01
    1       -1.057122   1.000000
    2        0.808578  -0.022772
    3        4.169106  -0.000000
    4        4.866374  -0.000000
    5        6.605270   0.000000

  0.4615385E+00  0.1538462E+00  0.1538462E+00  0.1092399E-01
    1       -0.524208   1.000000
    2        0.099117   1.009630
    3        4.667858  -0.000000
    4        5.363348  -0.000000
    5        5.945961  -0.000000

  0.2307692E+00  0.2307692E+00  0.1538462E+00  0.1092399E-01
    1       -1.594821   1.000000
    2        2.496370  -0.000000
    3        2.900804  -0.000000
    4        4.167144  -0.000000
    5        6.833515   0.000000

  0.3076923E+00  0.2307692E+00  0.1538462E+00  0.2184797E-01
    1       -1.252118   1.000000
    2        1.811841  -0.000000
    3        3.065820  -0.000000
    4        4.448688  -0.000000
    5        5.998465   0.000000

  0.3846154E+00  0.2307692E+00  0.1538462E+00  0.2184797E-01
    1       -0.814353   1.000000
    2        1.040061  -0.000329
    3        3.463265  -0.000000
    4        4.848704  -0.000000
    5        5.233421  -0.000000

  0.4615385E+00  0.2307692E+00  0.1538462E+00  0.2184797E-01
    1       -0.283790   1.000000
    2        0.336263   0.977685
    3        3.962036  -0.000000
    4        4.553176  -0.000000
    5        5.343237  -0.000000

  0.3076923E+00  0.3076923E+00  0.1538462E+00  0.1092399E-01
    1       -0.911383   1.000000
    2        1.955968  -0.000000
    3        2.406266  -0.000000
    4        4.729052  -0.000000
    5        5.171869  -0.000000

  0.3846154E+00  0.3076923E+00  0.1538462E+00  0.2184797E-01
    1       -0.476228   1.000000
    2        1.352825  -0.000000
    3        2.641636  -0.000000
    4        4.407041  -0.000000
    5        5.125169  -0.000000

  0.4615385E+00  0.3076923E+00  0.1538462E+00  0.2184797E-01
    1        0.050705   1.004236
    2        0.664850  -0.009214
    3        3.132069  -0.000000
    4        3.724584  -0.000000
    5        5.612618  -0.000000

  0.3846154E+00  0.3846154E+00  0.1538462E+00  0.1092399E-01
    1       -0.044820   1.000548
    2        1.596376  -0.000000
    3        2.037964  -0.000000
    4        3.639742  -0.000000
    5        5.513957  -0.000000

  0.4615385E+00  0.3846154E+00  0.1538462E+00  0.2184797E-01
    1        0.476132   0.547195
    2        1.074987  -0.000131
    3        2.370052  -0.000000
    4        2.955584  -0.000000
    5        5.985725   0.000000

  0.4615385E+00  0.4615385E+00  0.1538462E+00  0.1092399E-01
    1        0.982027  -0.001302
    2        1.416799  -0.000000
    3        1.847672  -0.000000
    4        2.277927  -0.000000
    5        6.409398   0.000000

  0.2307692E+00  0.2307692E+00  0.2307692E+00  0.3641329E-02
    1       -1.349852   1.000000
    2        2.721627  -0.000000
    3        2.721627  -0.000000
    4        3.623033  -0.000000
    5        6.842462   0.000000

  0.3076923E+00  0.2307692E+00  0.2307692E+00  0.1092399E-01
    1       -1.008556   1.000000
    2        2.027845  -0.000000
    3        3.037281  -0.000000
    4        3.765232  -0.000000
    5        6.483207   0.000000

  0.3846154E+00  0.2307692E+00  0.2307692E+00  0.1092399E-01
    1       -0.572632   1.000000
    2        1.269950  -0.000000
    3        3.443607  -0.000000
    4        4.145689  -0.000000
    5        5.855813  -0.000000

  0.4615385E+00  0.2307692E+00  0.2307692E+00  0.1092399E-01
    1       -0.044525   1.000552
    2        0.572063   0.174580
    3        3.940909  -0.000000
    4        4.638777  -0.000000
    5        5.217140  -0.000000

  0.3076923E+00  0.3076923E+00  0.2307692E+00  0.1092399E-01
    1       -0.669253   1.000000
    2        2.180608  -0.000000
    3        2.574389  -0.000000
    4        3.842128  -0.000000
    5        5.334411  -0.000000

  0.3846154E+00  0.3076923E+00  0.2307692E+00  0.2184797E-01
    1       -0.236049   1.000002
    2        1.580380  -0.000000
    3        2.833786  -0.000000
    4        4.214307  -0.000000
    5        4.587263  -0.000000

  0.4615385E+00  0.3076923E+00  0.2307692E+00  0.2184797E-01
    1        0.288269   1.024620
    2        0.898605  -0.006632
    3        3.323102  -0.000000
    4        3.911349  -0.000000
    5        4.699381  -0.000000

  0.3846154E+00  0.3846154E+00  0.2307692E+00  0.1092399E-01
    1        0.193255   1.028956
    2        1.820608  -0.000000
    3        2.259977  -0.000000
    4        3.846889  -0.000000
    5        4.579329  -0.000000

  0.4615385E+00  0.3846154E+00  0.2307692E+00  0.2184797E-01
    1        0.711233  -0.033502
    2        1.305488  -0.000000
    3        2.591306  -0.000000
    4        3.171718  -0.000000
    5        5.047910  -0.000000

  0.4615385E+00  0.4615385E+00  0.2307692E+00  0.1092399E-01
    1        1.213256  -0.000002
    2        1.640829  -0.000000
    3        2.081351  -0.000000
    4        2.504223  -0.000000
    5        5.466852  -0.000000

  0.3076923E+00  0.3076923E+00  0.3076923E+00  0.3641329E-02
    1       -0.332034   1.000000
    2        2.495448  -0.000000
    3        2.495448  -0.000000
    4        3.375536  -0.000000
    5        5.433468  -0.000000

  0.3846154E+00  0.3076923E+00  0.3076923E+00  0.1092399E-01
    1        0.098299   1.009510
    2        1.889108  -0.000000
    3        2.900791  -0.000000
    4        3.610204  -0.000000
    5        5.166148  -0.000000

  0.4615385E+00  0.3076923E+00  0.3076923E+00  0.1092399E-01
    1        0.618539   0.056369
    2        1.222188  -0.000001
    3        3.396997  -0.000000
    4        4.073580  -0.000000
    5        4.623064  -0.000000

  0.3846154E+00  0.3846154E+00  0.3076923E+00  0.1092399E-01
    1        0.524476   0.345690
    2        2.134905  -0.000000
    3        2.523687  -0.000000
    4        3.775304  -0.000000
    5        4.105402  -0.000000

  0.4615385E+00  0.3846154E+00  0.3076923E+00  0.2184797E-01
    1        1.037915  -0.000347
    2        1.624923  -0.000000
    3        2.874340  -0.000000
    4        3.449211  -0.000000
    5        4.219449  -0.000000

  0.4615385E+00  0.4615385E+00  0.3076923E+00  0.1092399E-01
    1        1.534548  -0.000000
    2        1.954855  -0.000000
    3        2.393105  -0.000000
    4        2.808908  -0.000000
    5        4.614858  -0.000000

  0.3846154E+00  0.3846154E+00  0.3846154E+00  0.3641329E-02
    1        0.946094  -0.002766
    2        2.539605  -0.000000
    3        2.539605  -0.000000
    4        3.388758  -0.000000
    5        4.299708  -0.000000

  0.4615385E+00  0.3846154E+00  0.3846154E+00  0.1092399E-01
    1        1.452273  -0.000000
    2        2.024022  -0.000000
    3        3.035072  -0.000000
    4        3.685858  -0.000000
    5        4.120034  -0.000000

  0.4615385E+00  0.4615385E+00  0.3846154E+00  0.1092399E-01
    1        1.941731  -0.000000
    2        2.359227  -0.000000
    3        2.740369  -0.000000
    4        3.161272  -0.000000
    5        3.881313  -0.000000

  0.4615385E+00  0.4615385E+00  0.4615385E+00  0.3641329E-02
    1        2.420199  -0.000000
    2        2.854325  -0.000000
    3        2.854325  -0.000000
    4        3.440533  -0.000000
    5        3.467710  -0.000000
