    2    2  100    1
  0.3925636E+02  0.4282000E-09  0.4282000E-09  0.4282000E-09  0.5000000E-15
   1.0000000000000000E-004
  CAR 
 unknown system                          
      2     84      5

  0.1262379E-14  0.1262379E-14  0.1262379E-14  0.4551661E-03
    1       -2.628060   1.000000
    2        5.150562  -0.000000
    3        5.150562  -0.000000
    4        5.531315  -0.000000
    5        5.531315  -0.000000

  0.7692308E-01  0.1262379E-14  0.1262379E-14  0.2730997E-02
    1       -2.576210   1.000000
    2        4.309815  -0.000000
    3        5.200761  -0.000000
    4        5.574671  -0.000000
    5        5.574671  -0.000000

  0.1538462E+00  0.1262379E-14  0.1262379E-14  0.2730997E-02
    1       -2.420919   1.000000
    2        3.300594  -0.000000
    3        5.351361  -0.000000
    4        5.704860  -0.000000
    5        5.704860  -0.000000

  0.2307692E+00  0.1262379E-14  0.1262379E-14  0.2730997E-02
    1       -2.162998   1.000000
    2        2.330522  -0.000000
    3        5.602345  -0.000000
    4        5.922195  -0.000000
    5        5.922195  -0.000000

  0.3076923E+00  0.1262379E-14  0.1262379E-14  0.2730997E-02
    1       -1.803781   1.000000
    2        1.426447  -0.000000
    3        5.953681  -0.000000
    4        6.227197   0.000000
    5        6.227197   0.000000

  0.3846154E+00  0.1262379E-14  0.1262379E-14  0.2730997E-02
    1       -1.345133   1.000000
    2        0.600689   0.727390
    3        6.405328   0.000000
    4        6.620500   0.000000
    5        6.620500   0.000000

  0.4615385E+00  0.1262379E-14  0.1262379E-14  0.2730997E-02
    1       -0.789414   1.000000
    2       -0.139571   1.000000
    3        6.957212   0.000000
    4        7.102759   0.000000
    5        7.102760   0.000000

  0.7692308E-01  0.7692308E-01  0.1262379E-14  0.5461994E-02
    1       -2.524398   1.000000
    2        4.199422  -0.000000
    3        4.573320  -0.000000
    4        5.618026  -0.000000
    5        5.914838  -0.000000

  0.1538462E+00  0.7692308E-01  0.1262379E-14  0.1092399E-01
    1       -2.369245   1.000000
    2        3.331719  -0.000000
    3        4.581580  -0.000000
    4        5.748200  -0.000000
    5        6.116500   0.000000

  0.2307692E+00  0.7692308E-01  0.1262379E-14  0.1092399E-01
    1       -2.111550   1.000000
    2        2.374264  -0.000000
    3        4.806616  -0.000000
    4        5.965508  -0.000000
    5        6.372515   0.000000

  0.3076923E+00  0.7692308E-01  0.1262379E-14  0.1092399E-01
    1       -1.752647   1.000000
    2        1.473668  -0.000000
    3        5.134166  -0.000000
    4        6.270451   0.000000
    5        6.717731   0.000000

  0.3846154E+00  0.7692308E-01  0.1262379E-14  0.1092399E-01
    1       -1.294395   1.000000
    2        0.649410   0.531256
    3        5.557515  -0.000000
    4        6.663641   0.000000
    5        7.156539   0.000000

  0.4615385E+00  0.7692308E-01  0.1262379E-14  0.1092399E-01
    1       -0.739174   1.000000
    2       -0.089965   1.000001
    3        6.074873  -0.000000
    4        6.685126   0.000000
    5        7.145693   0.000000

  0.1538462E+00  0.1538462E+00  0.1262379E-14  0.5461994E-02
    1       -2.214492   1.000000
    2        3.271488  -0.000000
    3        3.781743  -0.000000
    4        5.878330  -0.000000
    5        6.384079   0.000000

  0.2307692E+00  0.1538462E+00  0.1262379E-14  0.1092399E-01
    1       -1.957470   1.000000
    2        2.495516  -0.000000
    3        3.824736  -0.000000
    4        6.095538  -0.000000
    5        6.669287   0.000000

  0.3076923E+00  0.1538462E+00  0.1262379E-14  0.1092399E-01
    1       -1.599506   1.000000
    2        1.613520  -0.000000
    3        4.134468  -0.000000
    4        6.400271   0.000000
    5        7.035384   0.000000

  0.3846154E+00  0.1538462E+00  0.1262379E-14  0.1092399E-01
    1       -1.142453   1.000000
    2        0.794956   0.043390
    3        4.553928  -0.000000
    4        6.793046   0.000000
    5        7.492548   0.000000

  0.4615385E+00  0.1538462E+00  0.1262379E-14  0.1092399E-01
    1       -0.588743   1.000000
    2        0.058495   1.000098
    3        5.070750  -0.000000
    4        5.681547  -0.000000
    5        7.274316   0.000000

  0.2307692E+00  0.2307692E+00  0.1262379E-14  0.5461994E-02
    1       -1.701560   1.000000
    2        2.528492  -0.000000
    3        3.060559  -0.000000
    4        6.312514   0.000000
    5        7.099936   0.000000

  0.3076923E+00  0.2307692E+00  0.1262379E-14  0.1092399E-01
    1       -1.345152   1.000000
    2        1.834322  -0.000000
    3        3.186134  -0.000000
    4        6.221166   0.000000
    5        6.616757   0.000000

  0.3846154E+00  0.2307692E+00  0.1262379E-14  0.1092399E-01
    1       -0.890134   1.000000
    2        1.034707  -0.011235
    3        3.591682  -0.000000
    4        5.426596  -0.000000
    5        7.008545   0.000000

  0.4615385E+00  0.2307692E+00  0.1262379E-14  0.1092399E-01
    1       -0.339030   1.000000
    2        0.304584   1.015971
    3        4.107954  -0.000000
    4        7.487865   0.000000
    5        8.350895   0.000000

  0.3076923E+00  0.3076923E+00  0.1262379E-14  0.5461994E-02
    1       -0.990947   1.000000
    2        1.972337  -0.000000
    3        2.484993  -0.000000
    4        6.919937   0.000000
    5        7.714359   0.000000

  0.3846154E+00  0.3076923E+00  0.1262379E-14  0.1092399E-01
    1       -0.538856   1.000000
    2        1.357417  -0.000004
    3        2.712570  -0.000000
    4        7.309526   0.000000
    5        8.173020   0.000000

  0.4615385E+00  0.3076923E+00  0.1262379E-14  0.1092399E-01
    1        0.008220   1.000023
    2        0.645279   0.548669
    3        3.218286  -0.000000
    4        3.832457  -0.000000
    5        7.784115   0.000000

  0.3846154E+00  0.3846154E+00  0.1262379E-14  0.5461994E-02
    1       -0.090920   1.000001
    2        1.602303  -0.000000
    3        2.088179  -0.000000
    4        3.739580  -0.000000
    5        7.694110   0.000000

  0.4615385E+00  0.3846154E+00  0.1262379E-14  0.1092399E-01
    1        0.449517   1.028506
    2        1.069470  -0.006480
    3        2.423099  -0.000000
    4        3.028909  -0.000000
    5        8.156063   0.000000

  0.4615385E+00  0.4615385E+00  0.1262379E-14  0.5461994E-02
    1        0.973180  -0.023904
    2        1.417535  -0.000001
    3        1.886298  -0.000000
    4        2.325849  -0.000000
    5        8.574512   0.000000

  0.7692308E-01  0.7692308E-01  0.7692308E-01  0.3641329E-02
    1       -2.472638   1.000000
    2        4.246521  -0.000000
    3        4.246521  -0.000000
    4        5.135393  -0.000000
    5        6.721852   0.000000

  0.1538462E+00  0.7692308E-01  0.7692308E-01  0.1092399E-01
    1       -2.317614   1.000000
    2        3.365480  -0.000000
    3        4.387817  -0.000000
    4        5.140020  -0.000000
    5        6.861343   0.000000

  0.2307692E+00  0.7692308E-01  0.7692308E-01  0.1092399E-01
    1       -2.060147   1.000000
    2        2.418057  -0.000000
    3        4.623304  -0.000000
    4        5.345561  -0.000000
    5        7.094170   0.000000

  0.3076923E+00  0.7692308E-01  0.7692308E-01  0.1092399E-01
    1       -1.701556   1.000000
    2        1.520818  -0.000000
    3        4.952972  -0.000000
    4        5.660734  -0.000000
    5        7.420797   0.000000

  0.3846154E+00  0.7692308E-01  0.7692308E-01  0.1092399E-01
    1       -1.243701   1.000000
    2        0.698067   0.329449
    3        5.376800  -0.000000
    4        6.071287  -0.000000
    5        7.212235   0.000000

  0.4615385E+00  0.7692308E-01  0.7692308E-01  0.1092399E-01
    1       -0.688983   1.000000
    2       -0.040414   1.000005
    3        5.894731  -0.000000
    4        6.506647   0.000000
    5        6.572442   0.000000

  0.1538462E+00  0.1538462E+00  0.7692308E-01  0.1092399E-01
    1       -2.163000   1.000000
    2        3.318144  -0.000000
    3        3.762457  -0.000000
    4        5.068455  -0.000000
    5        7.290453   0.000000

  0.2307692E+00  0.1538462E+00  0.7692308E-01  0.2184797E-01
    1       -1.906198   1.000000
    2        2.539778  -0.000000
    3        3.834446  -0.000000
    4        5.266751  -0.000000
    5        7.574496   0.000000

  0.3076923E+00  0.1538462E+00  0.7692308E-01  0.2184797E-01
    1       -1.548550   1.000000
    2        1.660459  -0.000000
    3        4.147786  -0.000000
    4        5.582875  -0.000000
    5        7.188865   0.000000

  0.3846154E+00  0.1538462E+00  0.7692308E-01  0.2184797E-01
    1       -1.091903   1.000000
    2        0.843413  -0.016713
    3        4.567443  -0.000000
    4        5.996704  -0.000000
    5        6.396480   0.000000

  0.4615385E+00  0.1538462E+00  0.7692308E-01  0.2184797E-01
    1       -0.538700   1.000000
    2        0.107879   1.000362
    3        5.083721  -0.000000
    4        5.693985  -0.000000
    5        6.502127   0.000000

  0.2307692E+00  0.2307692E+00  0.7692308E-01  0.1092399E-01
    1       -1.650517   1.000000
    2        2.574906  -0.000000
    3        3.093268  -0.000000
    4        5.465295  -0.000000
    5        7.129958   0.000000

  0.3076923E+00  0.2307692E+00  0.7692308E-01  0.2184797E-01
    1       -1.294423   1.000000
    2        1.880936  -0.000000
    3        3.224490  -0.000000
    4        5.780716  -0.000000
    5        6.255320   0.000000

  0.3846154E+00  0.2307692E+00  0.7692308E-01  0.2184797E-01
    1       -0.839818   1.000000
    2        1.082806  -0.005136
    3        3.630241  -0.000000
    4        5.462471  -0.000000
    5        6.193030   0.000000

  0.4615385E+00  0.2307692E+00  0.7692308E-01  0.2184797E-01
    1       -0.289245   1.000000
    2        0.353675   1.026949
    3        4.145872  -0.000000
    4        4.758054  -0.000000
    5        6.695792   0.000000

  0.3076923E+00  0.3076923E+00  0.7692308E-01  0.1092399E-01
    1       -0.940542   1.000000
    2        2.018589  -0.000000
    3        2.529526  -0.000000
    4        5.379211  -0.000000
    5        6.093783  -0.000000

  0.3846154E+00  0.3076923E+00  0.7692308E-01  0.2184797E-01
    1       -0.488880   1.000000
    2        1.404892  -0.000001
    3        2.757669  -0.000000
    4        4.583399  -0.000000
    5        6.501975   0.000000

  0.4615385E+00  0.3076923E+00  0.7692308E-01  0.2184797E-01
    1        0.057628   1.000096
    2        0.693911   0.345939
    3        3.262688  -0.000000
    4        3.875895  -0.000000
    5        6.997319   0.000000

  0.3846154E+00  0.3846154E+00  0.7692308E-01  0.1092399E-01
    1       -0.041413   1.000005
    2        1.648451  -0.000000
    3        2.136507  -0.000000
    4        3.784205  -0.000000
    5        6.902270   0.000000

  0.4615385E+00  0.3846154E+00  0.7692308E-01  0.2184797E-01
    1        0.498378   0.988005
    2        1.117322  -0.002672
    3        2.470295  -0.000000
    4        3.074976  -0.000000
    5        7.380346   0.000000

  0.4615385E+00  0.4615385E+00  0.7692308E-01  0.1092399E-01
    1        1.021144  -0.013611
    2        1.463630  -0.000000
    3        1.935912  -0.000000
    4        2.373557  -0.000000
    5        7.805458   0.000000

  0.1538462E+00  0.1538462E+00  0.1538462E+00  0.3641329E-02
    1       -2.008789   1.000000
    2        3.458148  -0.000000
    3        3.458148  -0.000000
    4        4.473164  -0.000000
    5        8.368783   0.000000

  0.2307692E+00  0.1538462E+00  0.1538462E+00  0.1092399E-01
    1       -1.752657   1.000000
    2        2.664728  -0.000000
    3        3.691609  -0.000000
    4        4.521260  -0.000000
    5        7.956077   0.000000

  0.3076923E+00  0.1538462E+00  0.1538462E+00  0.1092399E-01
    1       -1.395947   1.000000
    2        1.799524  -0.000000
    3        4.018698  -0.000000
    4        4.811595  -0.000000
    5        7.065441   0.000000

  0.3846154E+00  0.1538462E+00  0.1538462E+00  0.1092399E-01
    1       -0.940525   1.000000
    2        0.988150  -0.020468
    3        4.439625  -0.000000
    4        5.223710  -0.000000
    5        7.006738   0.000000

  0.4615385E+00  0.1538462E+00  0.1538462E+00  0.1092399E-01
    1       -0.388869   1.000000
    2        0.255661   1.007848
    3        4.954644  -0.000000
    4        5.733909  -0.000000
    5        6.331721   0.000000

  0.2307692E+00  0.2307692E+00  0.1538462E+00  0.1092399E-01
    1       -1.497652   1.000000
    2        2.714198  -0.000000
    3        3.152981  -0.000000
    4        4.498198  -0.000000
    5        7.200392   0.000000

  0.3076923E+00  0.2307692E+00  0.1538462E+00  0.2184797E-01
    1       -1.142506   1.000000
    2        2.019357  -0.000000
    3        3.318747  -0.000000
    4        4.781609  -0.000000
    5        6.340917   0.000000

  0.3846154E+00  0.2307692E+00  0.1538462E+00  0.2184797E-01
    1       -0.689149   1.000000
    2        1.226470  -0.000213
    3        3.727038  -0.000000
    4        5.191224  -0.000000
    5        5.552120  -0.000000

  0.4615385E+00  0.2307692E+00  0.1538462E+00  0.2184797E-01
    1       -0.140194   1.000000
    2        0.500565   0.985076
    3        4.240989  -0.000000
    4        4.850550  -0.000000
    5        5.698903  -0.000000

  0.3076923E+00  0.3076923E+00  0.1538462E+00  0.1092399E-01
    1       -0.789603   1.000000
    2        2.157406  -0.000000
    3        2.655755  -0.000000
    4        5.063686  -0.000000
    5        5.492756  -0.000000

  0.3846154E+00  0.3076923E+00  0.1538462E+00  0.2184797E-01
    1       -0.339246   1.000000
    2        1.546780  -0.000000
    3        2.888631  -0.000000
    4        4.705336  -0.000000
    5        5.468863  -0.000000

  0.4615385E+00  0.3076923E+00  0.1538462E+00  0.2184797E-01
    1        0.205535   1.003206
    2        0.839414  -0.013594
    3        3.391904  -0.000000
    4        4.002166  -0.000000
    5        5.968230  -0.000000

  0.3846154E+00  0.3846154E+00  0.1538462E+00  0.1092399E-01
    1        0.106806   1.000353
    2        1.786960  -0.000000
    3        2.278934  -0.000000
    4        3.915919  -0.000000
    5        5.865298  -0.000000

  0.4615385E+00  0.3846154E+00  0.1538462E+00  0.2184797E-01
    1        0.644623   0.551428
    2        1.260529  -0.000084
    3        2.610246  -0.000000
    4        3.211512  -0.000000
    5        6.345768   0.000000

  0.4615385E+00  0.4615385E+00  0.1538462E+00  0.1092399E-01
    1        1.164726  -0.000968
    2        1.601988  -0.000000
    3        2.083224  -0.000000
    4        2.515524  -0.000000
    5        6.769536   0.000000

  0.2307692E+00  0.2307692E+00  0.2307692E+00  0.3641329E-02
    1       -1.243763   1.000000
    2        2.946522  -0.000000
    3        2.946522  -0.000000
    4        3.959206  -0.000000
    5        7.200048   0.000000

  0.3076923E+00  0.2307692E+00  0.2307692E+00  0.1092399E-01
    1       -0.890226   1.000000
    2        2.240214  -0.000000
    3        3.272128  -0.000000
    4        4.096058  -0.000000
    5        6.850139   0.000000

  0.3846154E+00  0.2307692E+00  0.2307692E+00  0.1092399E-01
    1       -0.438980   1.000000
    2        1.463005  -0.000000
    3        3.691336  -0.000000
    4        4.482193  -0.000000
    5        6.225861   0.000000

  0.4615385E+00  0.2307692E+00  0.2307692E+00  0.1092399E-01
    1        0.107158   1.000356
    2        0.743916   0.167314
    3        4.204496  -0.000000
    4        4.986562  -0.000000
    5        5.577633  -0.000000

  0.3076923E+00  0.3076923E+00  0.2307692E+00  0.1092399E-01
    1       -0.538966   1.000000
    2        2.388971  -0.000000
    3        2.816773  -0.000000
    4        4.161362  -0.000000
    5        5.652419  -0.000000

  0.3846154E+00  0.3076923E+00  0.2307692E+00  0.2184797E-01
    1       -0.090845   1.000001
    2        1.780811  -0.000000
    3        3.079377  -0.000000
    4        4.537226  -0.000000
    5        4.884302  -0.000000

  0.4615385E+00  0.3076923E+00  0.2307692E+00  0.2184797E-01
    1        0.450931   1.027912
    2        1.080438  -0.005357
    3        3.582209  -0.000000
    4        4.188078  -0.000000
    5        5.032472  -0.000000

  0.3846154E+00  0.3846154E+00  0.2307692E+00  0.1092399E-01
    1        0.352789   1.026748
    2        2.018028  -0.000000
    3        2.504223  -0.000000
    4        4.125782  -0.000000
    5        4.904744  -0.000000

  0.4615385E+00  0.3846154E+00  0.2307692E+00  0.2184797E-01
    1        0.887198  -0.034559
    2        1.497906  -0.000000
    3        2.835984  -0.000000
    4        3.431631  -0.000000
    5        5.380434  -0.000000

  0.4615385E+00  0.4615385E+00  0.2307692E+00  0.1092399E-01
    1        1.402924  -0.000001
    2        1.832809  -0.000000
    3        2.322659  -0.000000
    4        2.747414  -0.000000
    5        5.797803  -0.000000

  0.3076923E+00  0.3076923E+00  0.3076923E+00  0.3641329E-02
    1       -0.190101   1.000000
    2        2.713567  -0.000000
    3        2.713567  -0.000000
    4        3.701054  -0.000000
    5        5.745002  -0.000000

  0.3846154E+00  0.3076923E+00  0.3076923E+00  0.1092399E-01
    1        0.254729   1.007730
    2        2.097235  -0.000000
    3        3.131558  -0.000000
    4        3.931761  -0.000000
    5        5.491039  -0.000000

  0.4615385E+00  0.3076923E+00  0.3076923E+00  0.1092399E-01
    1        0.791806   0.049153
    2        1.413623  -0.000001
    3        3.643375  -0.000000
    4        4.400418  -0.000000
    5        4.955252  -0.000000

  0.3846154E+00  0.3846154E+00  0.3076923E+00  0.1092399E-01
    1        0.694768   0.342521
    2        2.341967  -0.000000
    3        2.764075  -0.000000
    4        4.086177  -0.000000
    5        4.384258  -0.000000

  0.4615385E+00  0.3846154E+00  0.3076923E+00  0.2184797E-01
    1        1.223993  -0.000227
    2        1.826563  -0.000000
    3        3.120432  -0.000000
    4        3.710796  -0.000000
    5        4.531602  -0.000000

  0.4615385E+00  0.4615385E+00  0.3076923E+00  0.1092399E-01
    1        1.733696  -0.000000
    2        2.156419  -0.000000
    3        2.639677  -0.000000
    4        3.057702  -0.000000
    5        4.920176  -0.000000

  0.3846154E+00  0.3846154E+00  0.3846154E+00  0.3641329E-02
    1        1.129590  -0.002081
    2        2.759170  -0.000000
    3        2.759170  -0.000000
    4        3.704952  -0.000000
    5        4.574725  -0.000000

  0.4615385E+00  0.3846154E+00  0.3846154E+00  0.1092399E-01
    1        1.650521  -0.000000
    2        2.236024  -0.000000
    3        3.270085  -0.000000
    4        3.993036  -0.000000
    5        4.412862  -0.000000

  0.4615385E+00  0.4615385E+00  0.3846154E+00  0.1092399E-01
    1        2.152400  -0.000000
    2        2.573232  -0.000000
    3        2.985424  -0.000000
    4        3.411769  -0.000000
    5        4.167403  -0.000000

  0.4615385E+00  0.4615385E+00  0.4615385E+00  0.3641329E-02
    1        2.642765  -0.000000
    2        3.083695  -0.000000
    3        3.083695  -0.000000
    4        3.688287  -0.000000
    5        3.739660  -0.000000
