unknown system                          
   1.0000000000000000     
     4.203381    0.000000   -0.000000
     0.000000    4.203381    0.000000
    -0.000000   -0.000000    4.203381
   Na
     2
Direct
 -0.000000 -0.000000  0.000000
  0.500000  0.500000  0.500000

   48   48   48
 -.36281521680E+02 -.34899702046E+02 -.33625943318E+02 -.32620063461E+02 -.30561065882E+02
 -.27975473971E+02 -.24817539805E+02 -.21187465428E+02 -.17186872567E+02 -.13037805934E+02
 -.90629752710E+01 -.55646244106E+01 -.25388323221E+01 -.23350973574E+00 0.79628128320E+00
 0.82801194495E+00 0.12105823336E+01 0.17062153279E+01 0.20749600450E+01 0.23860378831E+01
 0.26202259534E+01 0.28026753052E+01 0.29254293402E+01 0.30010326005E+01 0.30236782479E+01
 0.30010326006E+01 0.29254293403E+01 0.28026753053E+01 0.26202259536E+01 0.23860378834E+01
 0.20749600453E+01 0.17062153282E+01 0.12105823340E+01 0.82801194536E+00 0.79628128363E+00
 -.23350973530E+00 -.25388323216E+01 -.55646244102E+01 -.90629752705E+01 -.13037805934E+02
 -.17186872567E+02 -.21187465428E+02 -.24817539805E+02 -.27975473971E+02 -.30561065882E+02
 -.32620063461E+02 -.33625943318E+02 -.34899702046E+02 -.34899702046E+02 -.34207298590E+02
 -.33466228049E+02 -.32337108090E+02 -.30265216078E+02 -.27686887978E+02 -.24539711076E+02
 -.20919202168E+02 -.16923476462E+02 -.12810572235E+02 -.88814201077E+01 -.54129932146E+01
 -.24306663189E+01 -.16467582840E+00 0.80273082745E+00 0.83168185463E+00 0.12254522362E+01
 0.17183140294E+01 0.20816270256E+01 0.23935671140E+01 0.26243078775E+01 0.28074613152E+01
 0.29265761636E+01 0.30037747608E+01 0.30238719097E+01 0.30037747609E+01 0.29265761637E+01
 0.28074613153E+01 0.26243078777E+01 0.23935671143E+01 0.20816270259E+01 0.17183140298E+01
 0.12254522365E+01 0.83168185505E+00 0.80273082789E+00 -.16467582795E+00 -.24306663184E+01
 -.54129932142E+01 -.88814201073E+01 -.12810572234E+02 -.16923476461E+02 -.20919202167E+02
 -.24539711076E+02 -.27686887978E+02 -.30265216078E+02 -.32337108090E+02 -.33466228049E+02
 -.34207298590E+02 -.33625943318E+02 -.33466228049E+02 -.32866036984E+02 -.31455992153E+02
 -.29409042542E+02 -.26822278435E+02 -.23694022497E+02 -.20091730426E+02 -.16176111523E+02
 -.12135310584E+02 -.83365685997E+01 -.49831840715E+01 -.21029368525E+01 0.19159972334E-01
 0.82076783675E+00 0.84145021427E+00 0.12747275498E+01 0.17483521912E+01 0.21080638638E+01
 0.24108359458E+01 0.26374165200E+01 0.28170852842E+01 0.29344448812E+01 0.30106464056E+01
 0.30301525996E+01 0.30106464057E+01 0.29344448813E+01 0.28170852844E+01 0.26374165203E+01
 0.24108359461E+01 0.21080638642E+01 0.17483521915E+01 0.12747275502E+01 0.84145021469E+00
 0.82076783720E+00 0.19159972785E-01 -.21029368520E+01 -.49831840711E+01 -.83365685992E+01
 -.12135310584E+02 -.16176111522E+02 -.20091730426E+02 -.23694022497E+02 -.26822278435E+02
 -.29409042542E+02 -.31455992153E+02 -.32866036983E+02 -.33466228049E+02 -.32620063461E+02
 -.32337108090E+02 -.31455992153E+02 -.29978544724E+02 -.27970087801E+02 -.25392869746E+02
 -.22300703202E+02 -.18759547277E+02 -.14932533970E+02 -.11060868179E+02 -.74741463668E+01
 -.42902437288E+01 -.15938574087E+01 0.28246061378E+00 0.82772292708E+00 0.87246980097E+00
 0.13549122810E+01 0.17969001101E+01 0.21496393770E+01 0.24386498054E+01 0.26610439906E+01
 0.28323405004E+01 0.29471977479E+01 0.30192578505E+01 0.30394664906E+01 0.30192578505E+01
 0.29471977480E+01 0.28323405006E+01 0.26610439908E+01 0.24386498056E+01 0.21496393773E+01
 0.17969001105E+01 0.13549122814E+01 0.87246980140E+00 0.82772292753E+00 0.28246061425E+00
 -.15938574083E+01 -.42902437284E+01 -.74741463664E+01 -.11060868178E+02 -.14932533969E+02
 -.18759547276E+02 -.22300703202E+02 -.25392869746E+02 -.27970087800E+02 -.29978544724E+02
 -.31455992153E+02 -.32337108090E+02 -.30561065882E+02 -.30265216078E+02 -.29409042542E+02
 -.27970087801E+02 -.25972382888E+02 -.23412848170E+02 -.20372967635E+02 -.16929691686E+02
 -.13281993946E+02 -.96482976229E+01 -.63364978957E+01 -.33930672201E+01 -.94534333727E+00
 0.54806773676E+00 0.81577513537E+00 0.94114158148E+00 0.14626165817E+01 0.18585683476E+01
 0.22094118064E+01 0.24721774315E+01 0.26938195658E+01 0.28489013045E+01 0.29675583613E+01
 0.30287722749E+01 0.30559996652E+01 0.30287722750E+01 0.29675583615E+01 0.28489013047E+01
 0.26938195660E+01 0.24721774318E+01 0.22094118067E+01 0.18585683479E+01 0.14626165821E+01
 0.94114158192E+00 0.81577513583E+00 0.54806773723E+00 -.94534333680E+00 -.33930672196E+01
 -.63364978952E+01 -.96482976224E+01 -.13281993946E+02 -.16929691686E+02 -.20372967634E+02
 -.23412848170E+02 -.25972382887E+02 -.27970087801E+02 -.29409042542E+02 -.30265216078E+02
 -.27975473971E+02 -.27686887978E+02 -.26822278435E+02 -.25392869746E+02 -.23412848170E+02
 -.20917506257E+02 -.17975080346E+02 -.14700303395E+02 -.11278497262E+02 -.79948255159E+01
 -.50028148660E+01 -.23365831055E+01 -.25991736736E+00 0.74294112121E+00 0.79250983293E+00
 0.10721917320E+01 0.15787532222E+01 0.19415555863E+01 0.22740730230E+01 0.25177696947E+01
 0.27306156845E+01 0.28727870802E+01 0.29877764601E+01 0.30417409006E+01 0.30709106515E+01
 0.30417409007E+01 0.29877764603E+01 0.28727870804E+01 0.27306156848E+01 0.25177696950E+01
 0.22740730234E+01 0.19415555867E+01 0.15787532226E+01 0.10721917324E+01 0.79250983341E+00
 0.74294112171E+00 -.25991736687E+00 -.23365831050E+01 -.50028148655E+01 -.79948255154E+01
 -.11278497261E+02 -.14700303395E+02 -.17975080345E+02 -.20917506257E+02 -.23412848170E+02
 -.25392869746E+02 -.26822278435E+02 -.27686887978E+02 -.24817539805E+02 -.24539711076E+02
 -.23694022497E+02 -.22300703202E+02 -.20372967635E+02 -.17975080346E+02 -.15181631408E+02
 -.12147527470E+02 -.90901122397E+01 -.61916348515E+01 -.35292605673E+01 -.12316322960E+01
 0.34437178584E+00 0.80147141716E+00 0.82190626771E+00 0.12553960659E+01 0.16968267734E+01
 0.20419276274E+01 0.23432020598E+01 0.25727160957E+01 0.27667002756E+01 0.29016723400E+01
 0.30074915663E+01 0.30595901276E+01 0.30854999069E+01 0.30595901277E+01 0.30074915664E+01
 0.29016723402E+01 0.27667002759E+01 0.25727160960E+01 0.23432020601E+01 0.20419276278E+01
 0.16968267739E+01 0.12553960664E+01 0.82190626821E+00 0.80147141768E+00 0.34437178636E+00
 -.12316322955E+01 -.35292605669E+01 -.61916348511E+01 -.90901122393E+01 -.12147527469E+02
 -.15181631408E+02 -.17975080345E+02 -.20372967634E+02 -.22300703202E+02 -.23694022497E+02
 -.24539711076E+02 -.21187465428E+02 -.20919202168E+02 -.20091730426E+02 -.18759547277E+02
 -.16929691686E+02 -.14700303395E+02 -.12147527470E+02 -.94776202192E+01 -.68164504735E+01
 -.43233052290E+01 -.20275416867E+01 -.20810030503E+00 0.70544180875E+00 0.77286756577E+00
 0.96204818362E+00 0.14567149577E+01 0.18175479860E+01 0.21564949060E+01 0.24098591415E+01
 0.26378788025E+01 0.28006060627E+01 0.29385654942E+01 0.30214614575E+01 0.30823289024E+01
 0.30929637044E+01 0.30823289025E+01 0.30214614577E+01 0.29385654944E+01 0.28006060630E+01
 0.26378788029E+01 0.24098591419E+01 0.21564949065E+01 0.18175479865E+01 0.14567149582E+01
 0.96204818414E+00 0.77286756631E+00 0.70544180929E+00 -.20810030451E+00 -.20275416861E+01
 -.43233052286E+01 -.68164504730E+01 -.94776202188E+01 -.12147527469E+02 -.14700303395E+02
 -.16929691686E+02 -.18759547276E+02 -.20091730426E+02 -.20919202168E+02 -.17186872567E+02
 -.16923476462E+02 -.16176111523E+02 -.14932533970E+02 -.13281993946E+02 -.11278497262E+02
 -.90901122397E+01 -.68164504735E+01 -.46000316973E+01 -.24694016660E+01 -.64000790200E+00
 0.50321754160E+00 0.78811013260E+00 0.79731980133E+00 0.12167200900E+01 0.16276448731E+01
 0.19646866586E+01 0.22576867731E+01 0.24933608070E+01 0.26932543084E+01 0.28430589697E+01
 0.29657189273E+01 0.30433435937E+01 0.30973305018E+01 0.31084524673E+01 0.30973305019E+01
 0.30433435938E+01 0.29657189275E+01 0.28430589700E+01 0.26932543087E+01 0.24933608075E+01
 0.22576867735E+01 0.19646866591E+01 0.16276448736E+01 0.12167200905E+01 0.79731980189E+00
 0.78811013316E+00 0.50321754215E+00 -.64000790147E+00 -.24694016655E+01 -.46000316968E+01
 -.68164504730E+01 -.90901122393E+01 -.11278497261E+02 -.13281993946E+02 -.14932533970E+02
 -.16176111523E+02 -.16923476462E+02 -.13037805934E+02 -.12810572235E+02 -.12135310584E+02
 -.11060868179E+02 -.96482976229E+01 -.79948255159E+01 -.61916348515E+01 -.43233052290E+01
 -.24694016660E+01 -.79852448285E+00 0.34814126318E+00 0.78255411063E+00 0.74349423103E+00
 0.10267412854E+01 0.14666960818E+01 0.17983686781E+01 0.21137033046E+01 0.23566261718E+01
 0.25790592340E+01 0.27436383643E+01 0.28912990018E+01 0.29872225353E+01 0.30687938742E+01
 0.31037527446E+01 0.31263378999E+01 0.31037527447E+01 0.30687938743E+01 0.29872225355E+01
 0.28912990021E+01 0.27436383646E+01 0.25790592344E+01 0.23566261723E+01 0.21137033051E+01
 0.17983686786E+01 0.14666960824E+01 0.10267412860E+01 0.74349423162E+00 0.78255411121E+00
 0.34814126375E+00 -.79852448231E+00 -.24694016655E+01 -.43233052286E+01 -.61916348511E+01
 -.79948255155E+01 -.96482976226E+01 -.11060868178E+02 -.12135310584E+02 -.12810572235E+02
 -.90629752710E+01 -.88814201077E+01 -.83365685997E+01 -.74741463668E+01 -.63364978957E+01
 -.50028148660E+01 -.35292605673E+01 -.20275416867E+01 -.64000790200E+00 0.34814126318E+00
 0.77321756892E+00 0.73503395813E+00 0.91713717299E+00 0.13430167917E+01 0.16736724688E+01
 0.19881498359E+01 0.22398113752E+01 0.24686451417E+01 0.26485519643E+01 0.28060252113E+01
 0.29211371188E+01 0.30182558028E+01 0.30783477535E+01 0.31215452789E+01 0.31296748681E+01
 0.31215452790E+01 0.30783477536E+01 0.30182558031E+01 0.29211371191E+01 0.28060252117E+01
 0.26485519648E+01 0.24686451422E+01 0.22398113758E+01 0.19881498365E+01 0.16736724695E+01
 0.13430167923E+01 0.91713717361E+00 0.73503395874E+00 0.77321756951E+00 0.34814126374E+00
 -.64000790148E+00 -.20275416862E+01 -.35292605669E+01 -.50028148657E+01 -.63364978954E+01
 -.74741463666E+01 -.83365685995E+01 -.88814201076E+01 -.55646244106E+01 -.54129932146E+01
 -.49831840715E+01 -.42902437288E+01 -.33930672201E+01 -.23365831055E+01 -.12316322960E+01
 -.20810030503E+00 0.50321754160E+00 0.78255411063E+00 0.73503395813E+00 0.88303372527E+00
 0.12754901499E+01 0.15958772622E+01 0.18963177939E+01 0.21490053724E+01 0.23751419507E+01
 0.25629088922E+01 0.27237104790E+01 0.28531836938E+01 0.29600270789E+01 0.30377636325E+01
 0.30944028495E+01 0.31256267700E+01 0.31377741926E+01 0.31256267701E+01 0.30944028497E+01
 0.30377636327E+01 0.29600270792E+01 0.28531836943E+01 0.27237104795E+01 0.25629088928E+01
 0.23751419513E+01 0.21490053730E+01 0.18963177946E+01 0.15958772628E+01 0.12754901505E+01
 0.88303372592E+00 0.73503395875E+00 0.78255411122E+00 0.50321754215E+00 -.20810030454E+00
 -.12316322955E+01 -.23365831051E+01 -.33930672198E+01 -.42902437286E+01 -.49831840713E+01
 -.54129932146E+01 -.25388323221E+01 -.24306663189E+01 -.21029368525E+01 -.15938574087E+01
 -.94534333727E+00 -.25991736736E+00 0.34437178584E+00 0.70544180875E+00 0.78811013260E+00
 0.74349423103E+00 0.91713717299E+00 0.12754901499E+01 0.15692417448E+01 0.18482394604E+01
 0.20908051821E+01 0.23079117103E+01 0.24944154974E+01 0.26544671451E+01 0.27900359535E+01
 0.29005161522E+01 0.29874217495E+01 0.30541957543E+01 0.31017032007E+01 0.31299369692E+01
 0.31394124352E+01 0.31299369693E+01 0.31017032009E+01 0.30541957546E+01 0.29874217499E+01
 0.29005161527E+01 0.27900359540E+01 0.26544671457E+01 0.24944154980E+01 0.23079117109E+01
 0.20908051828E+01 0.18482394611E+01 0.15692417455E+01 0.12754901505E+01 0.91713717364E+00
 0.74349423164E+00 0.78811013317E+00 0.70544180928E+00 0.34437178631E+00 -.25991736697E+00
 -.94534333695E+00 -.15938574085E+01 -.21029368523E+01 -.24306663188E+01 -.23350973574E+00
 -.16467582840E+00 0.19159972334E-01 0.28246061378E+00 0.54806773676E+00 0.74294112121E+00
 0.80147141716E+00 0.77286756577E+00 0.79731980133E+00 0.10267412854E+01 0.13430167917E+01
 0.15958772622E+01 0.18482394604E+01 0.20707161160E+01 0.22728121450E+01 0.24502545595E+01
 0.26045632743E+01 0.27383658697E+01 0.28476899626E+01 0.29394304268E+01 0.30134716715E+01
 0.30700449156E+01 0.31080043036E+01 0.31309248575E+01 0.31377741926E+01 0.31309248576E+01
 0.31080043038E+01 0.30700449159E+01 0.30134716719E+01 0.29394304273E+01 0.28476899632E+01
 0.27383658703E+01 0.26045632750E+01 0.24502545602E+01 0.22728121457E+01 0.20707161167E+01
 0.18482394611E+01 0.15958772629E+01 0.13430167923E+01 0.10267412861E+01 0.79731980193E+00
 0.77286756632E+00 0.80147141765E+00 0.74294112163E+00 0.54806773710E+00 0.28246061404E+00
 0.19159972507E-01 -.16467582831E+00 0.79628128320E+00 0.80273082745E+00 0.82076783675E+00
 0.82772292708E+00 0.81577513537E+00 0.79250983293E+00 0.82190626771E+00 0.96204818362E+00
 0.12167200900E+01 0.14666960818E+01 0.16736724688E+01 0.18963177939E+01 0.20908051821E+01
 0.22728121450E+01 0.24350186280E+01 0.25783826005E+01 0.27045535976E+01 0.28090075693E+01
 0.29011936037E+01 0.29755637213E+01 0.30323818676E+01 0.30740515980E+01 0.31049697771E+01
 0.31228992494E+01 0.31296748681E+01 0.31228992495E+01 0.31049697773E+01 0.30740515983E+01
 0.30323818681E+01 0.29755637219E+01 0.29011936043E+01 0.28090075699E+01 0.27045535983E+01
 0.25783826013E+01 0.24350186288E+01 0.22728121458E+01 0.20908051829E+01 0.18963177947E+01
 0.16736724696E+01 0.14666960825E+01 0.12167200906E+01 0.96204818419E+00 0.82190626822E+00
 0.79250983336E+00 0.81577513572E+00 0.82772292735E+00 0.82076783694E+00 0.80273082754E+00
 0.82801194495E+00 0.83168185463E+00 0.84145021427E+00 0.87246980097E+00 0.94114158148E+00
 0.10721917320E+01 0.12553960659E+01 0.14567149577E+01 0.16276448731E+01 0.17983686781E+01
 0.19881498359E+01 0.21490053724E+01 0.23079117103E+01 0.24502545595E+01 0.25783826005E+01
 0.26928140858E+01 0.27887457558E+01 0.28762687955E+01 0.29448619852E+01 0.29985297535E+01
 0.30441620135E+01 0.30816154045E+01 0.31069266788E+01 0.31220332427E+01 0.31263378999E+01
 0.31220332428E+01 0.31069266790E+01 0.30816154048E+01 0.30441620139E+01 0.29985297540E+01
 0.29448619858E+01 0.28762687962E+01 0.27887457566E+01 0.26928140866E+01 0.25783826013E+01
 0.24502545603E+01 0.23079117111E+01 0.21490053731E+01 0.19881498366E+01 0.17983686788E+01
 0.16276448737E+01 0.14567149583E+01 0.12553960664E+01 0.10721917324E+01 0.94114158184E+00
 0.87246980125E+00 0.84145021446E+00 0.83168185472E+00 0.12105823336E+01 0.12254522362E+01
 0.12747275498E+01 0.13549122810E+01 0.14626165817E+01 0.15787532222E+01 0.16968267734E+01
 0.18175479860E+01 0.19646866586E+01 0.21137033046E+01 0.22398113752E+01 0.23751419507E+01
 0.24944154974E+01 0.26045632743E+01 0.27045535976E+01 0.27887457558E+01 0.28675404285E+01
 0.29277177581E+01 0.29771494603E+01 0.30246619756E+01 0.30606454144E+01 0.30834036270E+01
 0.30976911023E+01 0.31055784680E+01 0.31084524672E+01 0.31055784682E+01 0.30976911026E+01
 0.30834036274E+01 0.30606454148E+01 0.30246619761E+01 0.29771494609E+01 0.29277177589E+01
 0.28675404293E+01 0.27887457566E+01 0.27045535984E+01 0.26045632752E+01 0.24944154982E+01
 0.23751419515E+01 0.22398113760E+01 0.21137033054E+01 0.19646866592E+01 0.18175479866E+01
 0.16968267740E+01 0.15787532226E+01 0.14626165821E+01 0.13549122813E+01 0.12747275500E+01
 0.12254522363E+01 0.17062153279E+01 0.17183140294E+01 0.17483521912E+01 0.17969001101E+01
 0.18585683476E+01 0.19415555863E+01 0.20419276274E+01 0.21564949060E+01 0.22576867731E+01
 0.23566261718E+01 0.24686451417E+01 0.25629088922E+01 0.26544671451E+01 0.27383658697E+01
 0.28090075693E+01 0.28762687955E+01 0.29277177581E+01 0.29700841828E+01 0.30145150662E+01
 0.30422306396E+01 0.30587273820E+01 0.30720490436E+01 0.30831344948E+01 0.30905407854E+01
 0.30929637044E+01 0.30905407855E+01 0.30831344950E+01 0.30720490440E+01 0.30587273825E+01
 0.30422306402E+01 0.30145150668E+01 0.29700841835E+01 0.29277177590E+01 0.28762687963E+01
 0.28090075702E+01 0.27383658706E+01 0.26544671460E+01 0.25629088931E+01 0.24686451425E+01
 0.23566261726E+01 0.22576867738E+01 0.21564949067E+01 0.20419276279E+01 0.19415555868E+01
 0.18585683480E+01 0.17969001104E+01 0.17483521914E+01 0.17183140295E+01 0.20749600450E+01
 0.20816270256E+01 0.21080638638E+01 0.21496393770E+01 0.22094118064E+01 0.22740730230E+01
 0.23432020598E+01 0.24098591415E+01 0.24933608070E+01 0.25790592340E+01 0.26485519643E+01
 0.27237104790E+01 0.27900359535E+01 0.28476899626E+01 0.29011936037E+01 0.29448619852E+01
 0.29771494603E+01 0.30145150662E+01 0.30347252317E+01 0.30456049590E+01 0.30591409367E+01
 0.30705329765E+01 0.30795339055E+01 0.30834263388E+01 0.30854999068E+01 0.30834263389E+01
 0.30795339057E+01 0.30705329769E+01 0.30591409372E+01 0.30456049596E+01 0.30347252324E+01
 0.30145150669E+01 0.29771494611E+01 0.29448619861E+01 0.29011936046E+01 0.28476899635E+01
 0.27900359543E+01 0.27237104799E+01 0.26485519652E+01 0.25790592348E+01 0.24933608078E+01
 0.24098591422E+01 0.23432020603E+01 0.22740730236E+01 0.22094118068E+01 0.21496393773E+01
 0.21080638640E+01 0.20816270257E+01 0.23860378831E+01 0.23935671140E+01 0.24108359458E+01
 0.24386498054E+01 0.24721774315E+01 0.25177696947E+01 0.25727160957E+01 0.26378788025E+01
 0.26932543084E+01 0.27436383643E+01 0.28060252113E+01 0.28531836938E+01 0.29005161522E+01
 0.29394304268E+01 0.29755637213E+01 0.29985297535E+01 0.30246619756E+01 0.30422306396E+01
 0.30456049590E+01 0.30555000066E+01 0.30620664939E+01 0.30691846075E+01 0.30700436609E+01
 0.30723773142E+01 0.30709106514E+01 0.30723773143E+01 0.30700436611E+01 0.30691846079E+01
 0.30620664944E+01 0.30555000072E+01 0.30456049597E+01 0.30422306405E+01 0.30246619764E+01
 0.29985297544E+01 0.29755637223E+01 0.29394304278E+01 0.29005161531E+01 0.28531836947E+01
 0.28060252122E+01 0.27436383651E+01 0.26932543091E+01 0.26378788032E+01 0.25727160963E+01
 0.25177696952E+01 0.24721774320E+01 0.24386498057E+01 0.24108359460E+01 0.23935671141E+01
 0.26202259534E+01 0.26243078775E+01 0.26374165200E+01 0.26610439906E+01 0.26938195658E+01
 0.27306156845E+01 0.27667002756E+01 0.28006060627E+01 0.28430589697E+01 0.28912990018E+01
 0.29211371188E+01 0.29600270789E+01 0.29874217495E+01 0.30134716715E+01 0.30323818676E+01
 0.30441620135E+01 0.30606454144E+01 0.30587273820E+01 0.30591409367E+01 0.30620664939E+01
 0.30654988461E+01 0.30629251823E+01 0.30601996755E+01 0.30562813099E+01 0.30559996652E+01
 0.30562813101E+01 0.30601996758E+01 0.30629251827E+01 0.30654988466E+01 0.30620664945E+01
 0.30591409374E+01 0.30587273828E+01 0.30606454152E+01 0.30441620144E+01 0.30323818686E+01
 0.30134716724E+01 0.29874217505E+01 0.29600270798E+01 0.29211371197E+01 0.28912990026E+01
 0.28430589705E+01 0.28006060634E+01 0.27667002762E+01 0.27306156851E+01 0.26938195662E+01
 0.26610439909E+01 0.26374165203E+01 0.26243078776E+01 0.28026753052E+01 0.28074613152E+01
 0.28170852842E+01 0.28323405004E+01 0.28489013045E+01 0.28727870802E+01 0.29016723400E+01
 0.29385654942E+01 0.29657189273E+01 0.29872225353E+01 0.30182558028E+01 0.30377636325E+01
 0.30541957543E+01 0.30700449156E+01 0.30740515980E+01 0.30816154045E+01 0.30834036270E+01
 0.30720490436E+01 0.30705329765E+01 0.30691846075E+01 0.30629251823E+01 0.30538363067E+01
 0.30461210145E+01 0.30410638738E+01 0.30394664905E+01 0.30410638739E+01 0.30461210148E+01
 0.30538363071E+01 0.30629251829E+01 0.30691846081E+01 0.30705329772E+01 0.30720490444E+01
 0.30834036280E+01 0.30816154053E+01 0.30740515990E+01 0.30700449166E+01 0.30541957552E+01
 0.30377636334E+01 0.30182558037E+01 0.29872225361E+01 0.29657189281E+01 0.29385654949E+01
 0.29016723406E+01 0.28727870808E+01 0.28489013049E+01 0.28323405007E+01 0.28170852845E+01
 0.28074613153E+01 0.29254293402E+01 0.29265761636E+01 0.29344448812E+01 0.29471977479E+01
 0.29675583613E+01 0.29877764601E+01 0.30074915663E+01 0.30214614575E+01 0.30433435937E+01
 0.30687938742E+01 0.30783477535E+01 0.30944028495E+01 0.31017032007E+01 0.31080043036E+01
 0.31049697771E+01 0.31069266788E+01 0.30976911023E+01 0.30831344948E+01 0.30795339055E+01
 0.30700436609E+01 0.30601996755E+01 0.30461210145E+01 0.30376762312E+01 0.30303123128E+01
 0.30301525996E+01 0.30303123129E+01 0.30376762315E+01 0.30461210149E+01 0.30601996761E+01
 0.30700436615E+01 0.30795339062E+01 0.30831344956E+01 0.30976911033E+01 0.31069266797E+01
 0.31049697781E+01 0.31080043046E+01 0.31017032016E+01 0.30944028504E+01 0.30783477544E+01
 0.30687938750E+01 0.30433435944E+01 0.30214614582E+01 0.30074915669E+01 0.29877764607E+01
 0.29675583618E+01 0.29471977482E+01 0.29344448814E+01 0.29265761637E+01 0.30010326005E+01
 0.30037747608E+01 0.30106464056E+01 0.30192578505E+01 0.30287722749E+01 0.30417409006E+01
 0.30595901276E+01 0.30823289024E+01 0.30973305018E+01 0.31037527446E+01 0.31215452789E+01
 0.31256267700E+01 0.31299369692E+01 0.31309248575E+01 0.31228992494E+01 0.31220332427E+01
 0.31055784680E+01 0.30905407854E+01 0.30834263388E+01 0.30723773142E+01 0.30562813099E+01
 0.30410638738E+01 0.30303123128E+01 0.30253494895E+01 0.30238719097E+01 0.30253494896E+01
 0.30303123131E+01 0.30410638742E+01 0.30562813105E+01 0.30723773148E+01 0.30834263395E+01
 0.30905407862E+01 0.31055784690E+01 0.31220332436E+01 0.31228992504E+01 0.31309248585E+01
 0.31299369702E+01 0.31256267710E+01 0.31215452798E+01 0.31037527455E+01 0.30973305026E+01
 0.30823289031E+01 0.30595901282E+01 0.30417409012E+01 0.30287722753E+01 0.30192578508E+01
 0.30106464058E+01 0.30037747609E+01 0.30236782479E+01 0.30238719097E+01 0.30301525996E+01
 0.30394664906E+01 0.30559996652E+01 0.30709106515E+01 0.30854999069E+01 0.30929637044E+01
 0.31084524673E+01 0.31263378999E+01 0.31296748681E+01 0.31377741926E+01 0.31394124352E+01
 0.31377741926E+01 0.31296748681E+01 0.31263378999E+01 0.31084524672E+01 0.30929637044E+01
 0.30854999068E+01 0.30709106514E+01 0.30559996652E+01 0.30394664905E+01 0.30301525996E+01
 0.30238719097E+01 0.30236782479E+01 0.30238719098E+01 0.30301525999E+01 0.30394664910E+01
 0.30559996658E+01 0.30709106521E+01 0.30854999075E+01 0.30929637051E+01 0.31084524682E+01
 0.31263379008E+01 0.31296748690E+01 0.31377741936E+01 0.31394124361E+01 0.31377741936E+01
 0.31296748690E+01 0.31263379008E+01 0.31084524681E+01 0.30929637051E+01 0.30854999075E+01
 0.30709106520E+01 0.30559996657E+01 0.30394664909E+01 0.30301525999E+01 0.30238719098E+01
 0.30010326006E+01 0.30037747609E+01 0.30106464057E+01 0.30192578505E+01 0.30287722750E+01
 0.30417409007E+01 0.30595901277E+01 0.30823289025E+01 0.30973305019E+01 0.31037527447E+01
 0.31215452790E+01 0.31256267701E+01 0.31299369693E+01 0.31309248576E+01 0.31228992495E+01
 0.31220332428E+01 0.31055784682E+01 0.30905407855E+01 0.30834263389E+01 0.30723773143E+01
 0.30562813101E+01 0.30410638739E+01 0.30303123129E+01 0.30253494896E+01 0.30238719098E+01
 0.30253494898E+01 0.30303123132E+01 0.30410638744E+01 0.30562813107E+01 0.30723773150E+01
 0.30834263396E+01 0.30905407863E+01 0.31055784692E+01 0.31220332437E+01 0.31228992505E+01
 0.31309248586E+01 0.31299369703E+01 0.31256267711E+01 0.31215452799E+01 0.31037527456E+01
 0.30973305027E+01 0.30823289032E+01 0.30595901283E+01 0.30417409012E+01 0.30287722754E+01
 0.30192578509E+01 0.30106464059E+01 0.30037747610E+01 0.29254293403E+01 0.29265761637E+01
 0.29344448813E+01 0.29471977480E+01 0.29675583615E+01 0.29877764603E+01 0.30074915664E+01
 0.30214614577E+01 0.30433435938E+01 0.30687938743E+01 0.30783477536E+01 0.30944028497E+01
 0.31017032009E+01 0.31080043038E+01 0.31049697773E+01 0.31069266790E+01 0.30976911026E+01
 0.30831344950E+01 0.30795339057E+01 0.30700436611E+01 0.30601996758E+01 0.30461210148E+01
 0.30376762315E+01 0.30303123131E+01 0.30301525999E+01 0.30303123132E+01 0.30376762318E+01
 0.30461210152E+01 0.30601996764E+01 0.30700436618E+01 0.30795339064E+01 0.30831344958E+01
 0.30976911035E+01 0.31069266799E+01 0.31049697783E+01 0.31080043048E+01 0.31017032018E+01
 0.30944028506E+01 0.30783477545E+01 0.30687938752E+01 0.30433435946E+01 0.30214614584E+01
 0.30074915671E+01 0.29877764608E+01 0.29675583619E+01 0.29471977484E+01 0.29344448815E+01
 0.29265761638E+01 0.28026753053E+01 0.28074613153E+01 0.28170852844E+01 0.28323405006E+01
 0.28489013047E+01 0.28727870804E+01 0.29016723402E+01 0.29385654944E+01 0.29657189275E+01
 0.29872225355E+01 0.30182558031E+01 0.30377636327E+01 0.30541957546E+01 0.30700449159E+01
 0.30740515983E+01 0.30816154048E+01 0.30834036274E+01 0.30720490440E+01 0.30705329769E+01
 0.30691846079E+01 0.30629251827E+01 0.30538363071E+01 0.30461210149E+01 0.30410638742E+01
 0.30394664910E+01 0.30410638744E+01 0.30461210152E+01 0.30538363076E+01 0.30629251833E+01
 0.30691846085E+01 0.30705329776E+01 0.30720490448E+01 0.30834036284E+01 0.30816154056E+01
 0.30740515993E+01 0.30700449169E+01 0.30541957555E+01 0.30377636337E+01 0.30182558040E+01
 0.29872225364E+01 0.29657189283E+01 0.29385654951E+01 0.29016723408E+01 0.28727870810E+01
 0.28489013051E+01 0.28323405009E+01 0.28170852846E+01 0.28074613154E+01 0.26202259536E+01
 0.26243078777E+01 0.26374165203E+01 0.26610439908E+01 0.26938195660E+01 0.27306156848E+01
 0.27667002759E+01 0.28006060630E+01 0.28430589700E+01 0.28912990021E+01 0.29211371191E+01
 0.29600270792E+01 0.29874217499E+01 0.30134716719E+01 0.30323818681E+01 0.30441620139E+01
 0.30606454148E+01 0.30587273825E+01 0.30591409372E+01 0.30620664944E+01 0.30654988466E+01
 0.30629251829E+01 0.30601996761E+01 0.30562813105E+01 0.30559996658E+01 0.30562813107E+01
 0.30601996764E+01 0.30629251833E+01 0.30654988471E+01 0.30620664950E+01 0.30591409379E+01
 0.30587273834E+01 0.30606454157E+01 0.30441620148E+01 0.30323818690E+01 0.30134716728E+01
 0.29874217509E+01 0.29600270801E+01 0.29211371200E+01 0.28912990029E+01 0.28430589708E+01
 0.28006060637E+01 0.27667002765E+01 0.27306156853E+01 0.26938195665E+01 0.26610439912E+01
 0.26374165205E+01 0.26243078779E+01 0.23860378834E+01 0.23935671143E+01 0.24108359461E+01
 0.24386498056E+01 0.24721774318E+01 0.25177696950E+01 0.25727160960E+01 0.26378788029E+01
 0.26932543087E+01 0.27436383646E+01 0.28060252117E+01 0.28531836943E+01 0.29005161527E+01
 0.29394304273E+01 0.29755637219E+01 0.29985297540E+01 0.30246619761E+01 0.30422306402E+01
 0.30456049596E+01 0.30555000072E+01 0.30620664945E+01 0.30691846081E+01 0.30700436615E+01
 0.30723773148E+01 0.30709106521E+01 0.30723773150E+01 0.30700436618E+01 0.30691846085E+01
 0.30620664950E+01 0.30555000077E+01 0.30456049603E+01 0.30422306411E+01 0.30246619769E+01
 0.29985297549E+01 0.29755637228E+01 0.29394304282E+01 0.29005161536E+01 0.28531836951E+01
 0.28060252126E+01 0.27436383654E+01 0.26932543095E+01 0.26378788035E+01 0.25727160967E+01
 0.25177696955E+01 0.24721774323E+01 0.24386498060E+01 0.24108359463E+01 0.23935671144E+01
 0.20749600453E+01 0.20816270259E+01 0.21080638642E+01 0.21496393773E+01 0.22094118067E+01
 0.22740730234E+01 0.23432020601E+01 0.24098591419E+01 0.24933608075E+01 0.25790592344E+01
 0.26485519648E+01 0.27237104795E+01 0.27900359540E+01 0.28476899632E+01 0.29011936043E+01
 0.29448619858E+01 0.29771494609E+01 0.30145150668E+01 0.30347252324E+01 0.30456049597E+01
 0.30591409374E+01 0.30705329772E+01 0.30795339062E+01 0.30834263395E+01 0.30854999075E+01
 0.30834263396E+01 0.30795339064E+01 0.30705329776E+01 0.30591409379E+01 0.30456049603E+01
 0.30347252332E+01 0.30145150675E+01 0.29771494617E+01 0.29448619868E+01 0.29011936051E+01
 0.28476899641E+01 0.27900359548E+01 0.27237104804E+01 0.26485519656E+01 0.25790592352E+01
 0.24933608082E+01 0.24098591426E+01 0.23432020607E+01 0.22740730239E+01 0.22094118071E+01
 0.21496393777E+01 0.21080638644E+01 0.20816270260E+01 0.17062153282E+01 0.17183140298E+01
 0.17483521915E+01 0.17969001105E+01 0.18585683479E+01 0.19415555867E+01 0.20419276278E+01
 0.21564949065E+01 0.22576867735E+01 0.23566261723E+01 0.24686451422E+01 0.25629088928E+01
 0.26544671457E+01 0.27383658703E+01 0.28090075699E+01 0.28762687962E+01 0.29277177589E+01
 0.29700841835E+01 0.30145150669E+01 0.30422306405E+01 0.30587273828E+01 0.30720490444E+01
 0.30831344956E+01 0.30905407862E+01 0.30929637051E+01 0.30905407863E+01 0.30831344958E+01
 0.30720490448E+01 0.30587273834E+01 0.30422306411E+01 0.30145150675E+01 0.29700841842E+01
 0.29277177597E+01 0.28762687969E+01 0.28090075708E+01 0.27383658712E+01 0.26544671466E+01
 0.25629088936E+01 0.24686451430E+01 0.23566261731E+01 0.22576867743E+01 0.21564949071E+01
 0.20419276284E+01 0.19415555872E+01 0.18585683483E+01 0.17969001108E+01 0.17483521917E+01
 0.17183140299E+01 0.12105823340E+01 0.12254522365E+01 0.12747275502E+01 0.13549122814E+01
 0.14626165821E+01 0.15787532226E+01 0.16968267739E+01 0.18175479865E+01 0.19646866591E+01
 0.21137033051E+01 0.22398113758E+01 0.23751419513E+01 0.24944154980E+01 0.26045632750E+01
 0.27045535983E+01 0.27887457566E+01 0.28675404293E+01 0.29277177590E+01 0.29771494611E+01
 0.30246619764E+01 0.30606454152E+01 0.30834036280E+01 0.30976911033E+01 0.31055784690E+01
 0.31084524682E+01 0.31055784692E+01 0.30976911035E+01 0.30834036284E+01 0.30606454157E+01
 0.30246619769E+01 0.29771494617E+01 0.29277177597E+01 0.28675404300E+01 0.27887457574E+01
 0.27045535991E+01 0.26045632758E+01 0.24944154989E+01 0.23751419521E+01 0.22398113766E+01
 0.21137033059E+01 0.19646866598E+01 0.18175479871E+01 0.16968267744E+01 0.15787532231E+01
 0.14626165825E+01 0.13549122817E+01 0.12747275504E+01 0.12254522366E+01 0.82801194536E+00
 0.83168185505E+00 0.84145021469E+00 0.87246980140E+00 0.94114158192E+00 0.10721917324E+01
 0.12553960664E+01 0.14567149582E+01 0.16276448736E+01 0.17983686786E+01 0.19881498365E+01
 0.21490053730E+01 0.23079117109E+01 0.24502545602E+01 0.25783826013E+01 0.26928140866E+01
 0.27887457566E+01 0.28762687963E+01 0.29448619861E+01 0.29985297544E+01 0.30441620144E+01
 0.30816154053E+01 0.31069266797E+01 0.31220332436E+01 0.31263379008E+01 0.31220332437E+01
 0.31069266799E+01 0.30816154056E+01 0.30441620148E+01 0.29985297549E+01 0.29448619868E+01
 0.28762687969E+01 0.27887457574E+01 0.26928140874E+01 0.25783826020E+01 0.24502545610E+01
 0.23079117117E+01 0.21490053738E+01 0.19881498372E+01 0.17983686793E+01 0.16276448743E+01
 0.14567149588E+01 0.12553960669E+01 0.10721917329E+01 0.94114158229E+00 0.87246980169E+00