unknown system                          
   1.0000000000000000     
     4.282000    0.000000    0.000000
     0.000000    4.282000    0.000000
     0.000000    0.000000    4.282000
   Na
     2
Direct
  0.000000  0.000000  0.000000
  0.500000  0.500000  0.500000

   48   48   48
 -.36493366943E+02 -.35082641230E+02 -.33815644842E+02 -.32747266015E+02 -.30595285836E+02
 -.27917957058E+02 -.24645641617E+02 -.20902512411E+02 -.16781703002E+02 -.12552675028E+02
 -.85849959965E+01 -.51064471664E+01 -.21496787017E+01 -.46100302078E-01 0.64234981563E+00
 0.68205949804E+00 0.11937391552E+01 0.16429022460E+01 0.20208214026E+01 0.23079036224E+01
 0.25474947087E+01 0.27125690456E+01 0.28417144017E+01 0.29049468416E+01 0.29365920518E+01
 0.29049468417E+01 0.28417144018E+01 0.27125690457E+01 0.25474947090E+01 0.23079036227E+01
 0.20208214029E+01 0.16429022464E+01 0.11937391556E+01 0.68205949845E+00 0.64234981606E+00
 -.46100301644E-01 -.21496787013E+01 -.51064471660E+01 -.85849959961E+01 -.12552675028E+02
 -.16781703002E+02 -.20902512411E+02 -.24645641617E+02 -.27917957058E+02 -.30595285835E+02
 -.32747266015E+02 -.33815644842E+02 -.35082641230E+02 -.35082641230E+02 -.34392724323E+02
 -.33653683924E+02 -.32447887694E+02 -.30295821595E+02 -.27621205271E+02 -.24361916581E+02
 -.20616807429E+02 -.16512649929E+02 -.12329354494E+02 -.83984277808E+01 -.49601887867E+01
 -.20442091242E+01 0.95597952280E-02 0.64079486326E+00 0.69259523300E+00 0.12079112685E+01
 0.16551065833E+01 0.20274244627E+01 0.23147808121E+01 0.25508200597E+01 0.27180535203E+01
 0.28432375509E+01 0.29087992755E+01 0.29371371330E+01 0.29087992755E+01 0.28432375510E+01
 0.27180535205E+01 0.25508200599E+01 0.23147808124E+01 0.20274244631E+01 0.16551065836E+01
 0.12079112689E+01 0.69259523342E+00 0.64079486369E+00 0.95597956668E-02 -.20442091238E+01
 -.49601887862E+01 -.83984277804E+01 -.12329354493E+02 -.16512649929E+02 -.20616807428E+02
 -.24361916580E+02 -.27621205271E+02 -.30295821595E+02 -.32447887694E+02 -.33653683924E+02
 -.34392724323E+02 -.33815644842E+02 -.33653683924E+02 -.33007293883E+02 -.31526146670E+02
 -.29403179620E+02 -.26721367332E+02 -.23484093798E+02 -.19772990654E+02 -.15746003452E+02
 -.11644119484E+02 -.78630036234E+01 -.45317389171E+01 -.17335063098E+01 0.15550783936E+00
 0.63785189324E+00 0.72251057146E+00 0.12555960194E+01 0.16844558401E+01 0.20525922616E+01
 0.23324672201E+01 0.25638824916E+01 0.27269626806E+01 0.28501816535E+01 0.29146434180E+01
 0.29425987505E+01 0.29146434181E+01 0.28501816536E+01 0.27269626807E+01 0.25638824918E+01
 0.23324672204E+01 0.20525922619E+01 0.16844558405E+01 0.12555960198E+01 0.72251057188E+00
 0.63785189368E+00 0.15550783980E+00 -.17335063094E+01 -.45317389167E+01 -.78630036230E+01
 -.11644119484E+02 -.15746003451E+02 -.19772990653E+02 -.23484093797E+02 -.26721367332E+02
 -.29403179620E+02 -.31526146670E+02 -.33007293883E+02 -.33653683924E+02 -.32747266015E+02
 -.32447887694E+02 -.31526146670E+02 -.29997578880E+02 -.27915343398E+02 -.25245119897E+02
 -.22047233722E+02 -.18393813749E+02 -.14475730739E+02 -.10575364160E+02 -.69985277565E+01
 -.38544408710E+01 -.12518211655E+01 0.34893997328E+00 0.62452999667E+00 0.78605895105E+00
 0.13291565885E+01 0.17340297834E+01 0.20921270042E+01 0.23597564226E+01 0.25857866664E+01
 0.27429415957E+01 0.28628182719E+01 0.29244168611E+01 0.29519125326E+01 0.29244168612E+01
 0.28628182720E+01 0.27429415958E+01 0.25857866666E+01 0.23597564228E+01 0.20921270045E+01
 0.17340297838E+01 0.13291565889E+01 0.78605895148E+00 0.62452999711E+00 0.34893997374E+00
 -.12518211650E+01 -.38544408706E+01 -.69985277561E+01 -.10575364160E+02 -.14475730739E+02
 -.18393813749E+02 -.22047233722E+02 -.25245119897E+02 -.27915343398E+02 -.29997578880E+02
 -.31526146670E+02 -.32447887694E+02 -.30595285836E+02 -.30295821595E+02 -.29403179620E+02
 -.27915343398E+02 -.25837118349E+02 -.23195561602E+02 -.20054052703E+02 -.16524229990E+02
 -.12799788023E+02 -.91615517901E+01 -.58745594009E+01 -.29738079738E+01 -.66022463973E+00
 0.51870441145E+00 0.61100247031E+00 0.89272860442E+00 0.14245036571E+01 0.17991315902E+01
 0.21463909247E+01 0.23957814415E+01 0.26160149665E+01 0.27603520873E+01 0.28803630466E+01
 0.29342816236E+01 0.29659079926E+01 0.29342816236E+01 0.28803630467E+01 0.27603520875E+01
 0.26160149667E+01 0.23957814418E+01 0.21463909251E+01 0.17991315906E+01 0.14245036575E+01
 0.89272860486E+00 0.61100247077E+00 0.51870441191E+00 -.66022463926E+00 -.29738079733E+01
 -.58745594004E+01 -.91615517897E+01 -.12799788022E+02 -.16524229990E+02 -.20054052703E+02
 -.23195561602E+02 -.25837118349E+02 -.27915343398E+02 -.29403179620E+02 -.30295821595E+02
 -.27917957058E+02 -.27621205271E+02 -.26721367332E+02 -.25245119897E+02 -.23195561602E+02
 -.20623340739E+02 -.17590176955E+02 -.14237614284E+02 -.10785679231E+02 -.75255966551E+01
 -.45467576292E+01 -.19588712441E+01 -.68798181225E-01 0.60696789839E+00 0.62483471371E+00
 0.10518208920E+01 0.15250545032E+01 0.18879124077E+01 0.22037971441E+01 0.24443899981E+01
 0.26470048470E+01 0.27881770270E+01 0.28969880032E+01 0.29516003478E+01 0.29775214583E+01
 0.29516003479E+01 0.28969880033E+01 0.27881770272E+01 0.26470048472E+01 0.24443899984E+01
 0.22037971445E+01 0.18879124081E+01 0.15250545036E+01 0.10518208925E+01 0.62483471418E+00
 0.60696789888E+00 -.68798180743E-01 -.19588712436E+01 -.45467576288E+01 -.75255966546E+01
 -.10785679230E+02 -.14237614284E+02 -.17590176955E+02 -.20623340739E+02 -.23195561602E+02
 -.25245119897E+02 -.26721367332E+02 -.27621205271E+02 -.24645641617E+02 -.24361916581E+02
 -.23484093798E+02 -.22047233722E+02 -.20054052703E+02 -.17590176955E+02 -.14725992515E+02
 -.11664992452E+02 -.86066079998E+01 -.57262957494E+01 -.31085747408E+01 -.91969662487E+00
 0.38624296278E+00 0.59753658736E+00 0.72645563217E+00 0.12353171341E+01 0.16366239541E+01
 0.19885537703E+01 0.22676646856E+01 0.25014679270E+01 0.26798838623E+01 0.28185042284E+01
 0.29128084894E+01 0.29706610586E+01 0.29883831999E+01 0.29706610587E+01 0.29128084895E+01
 0.28185042286E+01 0.26798838626E+01 0.25014679274E+01 0.22676646859E+01 0.19885537707E+01
 0.16366239545E+01 0.12353171345E+01 0.72645563267E+00 0.59753658786E+00 0.38624296329E+00
 -.91969662438E+00 -.31085747403E+01 -.57262957490E+01 -.86066079994E+01 -.11664992451E+02
 -.14725992515E+02 -.17590176955E+02 -.20054052703E+02 -.22047233722E+02 -.23484093798E+02
 -.24361916581E+02 -.20902512411E+02 -.20616807429E+02 -.19772990654E+02 -.18393813749E+02
 -.16524229990E+02 -.14237614284E+02 -.11664992452E+02 -.89857155064E+01 -.63495060673E+01
 -.38870509541E+01 -.16567615013E+01 -.34495948743E-01 0.58491899798E+00 0.58686711083E+00
 0.93428373482E+00 0.14130734772E+01 0.17634620286E+01 0.20939103831E+01 0.23374874046E+01
 0.25606883739E+01 0.27150218666E+01 0.28526533028E+01 0.29291892141E+01 0.29920756838E+01
 0.29982881673E+01 0.29920756839E+01 0.29291892142E+01 0.28526533030E+01 0.27150218669E+01
 0.25606883742E+01 0.23374874049E+01 0.20939103836E+01 0.17634620290E+01 0.14130734777E+01
 0.93428373533E+00 0.58686711136E+00 0.58491899850E+00 -.34495948224E-01 -.16567615008E+01
 -.38870509537E+01 -.63495060669E+01 -.89857155060E+01 -.11664992451E+02 -.14237614284E+02
 -.16524229990E+02 -.18393813749E+02 -.19772990654E+02 -.20616807428E+02 -.16781703002E+02
 -.16512649929E+02 -.15746003452E+02 -.14475730739E+02 -.12799788023E+02 -.10785679231E+02
 -.86066079998E+01 -.63495060673E+01 -.41622795517E+01 -.20696690925E+01 -.40487884838E+00
 0.48556409637E+00 0.57538669790E+00 0.71222180697E+00 0.11983594536E+01 0.15688375062E+01
 0.19156715312E+01 0.21840825937E+01 0.24257869309E+01 0.26079506473E+01 0.27642100480E+01
 0.28715106495E+01 0.29567552430E+01 0.29985820211E+01 0.30195074662E+01 0.29985820212E+01
 0.29567552431E+01 0.28715106498E+01 0.27642100483E+01 0.26079506476E+01 0.24257869313E+01
 0.21840825941E+01 0.19156715317E+01 0.15688375068E+01 0.11983594541E+01 0.71222180752E+00
 0.57538669845E+00 0.48556409691E+00 -.40487884785E+00 -.20696690920E+01 -.41622795512E+01
 -.63495060669E+01 -.86066079995E+01 -.10785679230E+02 -.12799788023E+02 -.14475730739E+02
 -.15746003451E+02 -.16512649929E+02 -.12552675028E+02 -.12329354494E+02 -.11644119484E+02
 -.10575364160E+02 -.91615517901E+01 -.75255966551E+01 -.57262957494E+01 -.38870509541E+01
 -.20696690925E+01 -.54636477818E+00 0.38758761201E+00 0.58736941030E+00 0.60072485020E+00
 0.10145209513E+01 0.14139310936E+01 0.17528578037E+01 0.20465114791E+01 0.22917950043E+01
 0.24997873117E+01 0.26651116007E+01 0.28019207881E+01 0.29008216253E+01 0.29746899276E+01
 0.30136698417E+01 0.30304715279E+01 0.30136698418E+01 0.29746899277E+01 0.29008216255E+01
 0.28019207884E+01 0.26651116011E+01 0.24997873122E+01 0.22917950048E+01 0.20465114796E+01
 0.17528578042E+01 0.14139310941E+01 0.10145209519E+01 0.60072485078E+00 0.58736941087E+00
 0.38758761256E+00 -.54636477765E+00 -.20696690921E+01 -.38870509537E+01 -.57262957490E+01
 -.75255966548E+01 -.91615517898E+01 -.10575364160E+02 -.11644119484E+02 -.12329354494E+02
 -.85849959965E+01 -.83984277808E+01 -.78630036234E+01 -.69985277565E+01 -.58745594009E+01
 -.45467576292E+01 -.31085747408E+01 -.16567615013E+01 -.40487884838E+00 0.38758761201E+00
 0.59063851959E+00 0.56269441270E+00 0.89638649195E+00 0.13005815801E+01 0.16271668491E+01
 0.19289456623E+01 0.21754672498E+01 0.23958375613E+01 0.25703085933E+01 0.27233620416E+01
 0.28347137376E+01 0.29281164538E+01 0.29854372724E+01 0.30273430103E+01 0.30347791289E+01
 0.30273430104E+01 0.29854372725E+01 0.29281164540E+01 0.28347137379E+01 0.27233620420E+01
 0.25703085937E+01 0.23958375619E+01 0.21754672504E+01 0.19289456629E+01 0.16271668497E+01
 0.13005815807E+01 0.89638649257E+00 0.56269441329E+00 0.59063852017E+00 0.38758761256E+00
 -.40487884787E+00 -.16567615008E+01 -.31085747404E+01 -.45467576289E+01 -.58745594006E+01
 -.69985277563E+01 -.78630036233E+01 -.83984277808E+01 -.51064471664E+01 -.49601887867E+01
 -.45317389171E+01 -.38544408710E+01 -.29738079738E+01 -.19588712441E+01 -.91969662487E+00
 -.34495948743E-01 0.48556409637E+00 0.58736941030E+00 0.56269441270E+00 0.85682026671E+00
 0.12393115805E+01 0.15487993588E+01 0.18422993669E+01 0.20858242483E+01 0.23067338205E+01
 0.24867301492E+01 0.26452276008E+01 0.27670781455E+01 0.28724223409E+01 0.29458830977E+01
 0.30034566027E+01 0.30315430781E+01 0.30456163636E+01 0.30315430782E+01 0.30034566029E+01
 0.29458830980E+01 0.28724223413E+01 0.27670781459E+01 0.26452276013E+01 0.24867301497E+01
 0.23067338210E+01 0.20858242489E+01 0.18422993676E+01 0.15487993595E+01 0.12393115812E+01
 0.85682026734E+00 0.56269441330E+00 0.58736941088E+00 0.48556409690E+00 -.34495948254E-01
 -.91969662444E+00 -.19588712437E+01 -.29738079735E+01 -.38544408708E+01 -.45317389170E+01
 -.49601887866E+01 -.21496787017E+01 -.20442091242E+01 -.17335063098E+01 -.12518211655E+01
 -.66022463973E+00 -.68798181225E-01 0.38624296278E+00 0.58491899798E+00 0.57538669790E+00
 0.60072485020E+00 0.89638649195E+00 0.12393115805E+01 0.15221680019E+01 0.17964626321E+01
 0.20289824078E+01 0.22420482905E+01 0.24206094394E+01 0.25780970940E+01 0.27057152975E+01
 0.28163642865E+01 0.28983818103E+01 0.29645203389E+01 0.30071263872E+01 0.30362842153E+01
 0.30429492374E+01 0.30362842154E+01 0.30071263874E+01 0.29645203392E+01 0.28983818107E+01
 0.28163642869E+01 0.27057152980E+01 0.25780970945E+01 0.24206094400E+01 0.22420482912E+01
 0.20289824085E+01 0.17964626328E+01 0.15221680026E+01 0.12393115812E+01 0.89638649260E+00
 0.60072485080E+00 0.57538669846E+00 0.58491899849E+00 0.38624296324E+00 -.68798180837E-01
 -.66022463941E+00 -.12518211652E+01 -.17335063096E+01 -.20442091242E+01 -.46100302078E-01
 0.95597952280E-02 0.15550783936E+00 0.34893997328E+00 0.51870441145E+00 0.60696789839E+00
 0.59753658736E+00 0.58686711083E+00 0.71222180697E+00 0.10145209513E+01 0.13005815801E+01
 0.15487993588E+01 0.17964626321E+01 0.20094622403E+01 0.22081318835E+01 0.23780836788E+01
 0.25294589640E+01 0.26564492567E+01 0.27660742996E+01 0.28509352869E+01 0.29232251999E+01
 0.29762707989E+01 0.30159894845E+01 0.30367963703E+01 0.30456163636E+01 0.30367963704E+01
 0.30159894847E+01 0.29762707992E+01 0.29232252003E+01 0.28509352873E+01 0.27660743002E+01
 0.26564492572E+01 0.25294589647E+01 0.23780836795E+01 0.22081318842E+01 0.20094622410E+01
 0.17964626329E+01 0.15487993595E+01 0.13005815808E+01 0.10145209520E+01 0.71222180756E+00
 0.58686711137E+00 0.59753658784E+00 0.60696789880E+00 0.51870441178E+00 0.34893997353E+00
 0.15550783953E+00 0.95597953138E-02 0.64234981563E+00 0.64079486326E+00 0.63785189324E+00
 0.62452999667E+00 0.61100247031E+00 0.62483471371E+00 0.72645563217E+00 0.93428373482E+00
 0.11983594536E+01 0.14139310936E+01 0.16271668491E+01 0.18422993669E+01 0.20289824078E+01
 0.22081318835E+01 0.23634117291E+01 0.25039654650E+01 0.26243886839E+01 0.27284295484E+01
 0.28126804268E+01 0.28875643459E+01 0.29431351715E+01 0.29853285877E+01 0.30123511642E+01
 0.30302567546E+01 0.30347791288E+01 0.30302567547E+01 0.30123511644E+01 0.29853285881E+01
 0.29431351720E+01 0.28875643463E+01 0.28126804273E+01 0.27284295490E+01 0.26243886846E+01
 0.25039654657E+01 0.23634117298E+01 0.22081318842E+01 0.20289824086E+01 0.18422993677E+01
 0.16271668498E+01 0.14139310942E+01 0.11983594542E+01 0.93428373538E+00 0.72645563267E+00
 0.62483471413E+00 0.61100247066E+00 0.62452999693E+00 0.63785189342E+00 0.64079486335E+00
 0.68205949804E+00 0.69259523300E+00 0.72251057146E+00 0.78605895105E+00 0.89272860442E+00
 0.10518208920E+01 0.12353171341E+01 0.14130734772E+01 0.15688375062E+01 0.17528578037E+01
 0.19289456623E+01 0.20858242483E+01 0.22420482905E+01 0.23780836788E+01 0.25039654650E+01
 0.26132540723E+01 0.27084523883E+01 0.27882910903E+01 0.28601902064E+01 0.29111708703E+01
 0.29528796046E+01 0.29851914732E+01 0.30107879561E+01 0.30247071120E+01 0.30304715279E+01
 0.30247071121E+01 0.30107879563E+01 0.29851914735E+01 0.29528796050E+01 0.29111708709E+01
 0.28601902070E+01 0.27882910909E+01 0.27084523890E+01 0.26132540731E+01 0.25039654657E+01
 0.23780836796E+01 0.22420482913E+01 0.20858242491E+01 0.19289456631E+01 0.17528578044E+01
 0.15688375069E+01 0.14130734778E+01 0.12353171346E+01 0.10518208925E+01 0.89272860478E+00
 0.78605895133E+00 0.72251057165E+00 0.69259523310E+00 0.11937391552E+01 0.12079112685E+01
 0.12555960194E+01 0.13291565885E+01 0.14245036571E+01 0.15250545032E+01 0.16366239541E+01
 0.17634620286E+01 0.19156715312E+01 0.20465114791E+01 0.21754672498E+01 0.23067338205E+01
 0.24206094394E+01 0.25294589640E+01 0.26243886839E+01 0.27084523883E+01 0.27799091738E+01
 0.28449118533E+01 0.28887474766E+01 0.29305562851E+01 0.29663045044E+01 0.29931314075E+01
 0.30083849013E+01 0.30174893150E+01 0.30195074661E+01 0.30174893151E+01 0.30083849015E+01
 0.29931314079E+01 0.29663045048E+01 0.29305562856E+01 0.28887474772E+01 0.28449118540E+01
 0.27799091745E+01 0.27084523891E+01 0.26243886847E+01 0.25294589649E+01 0.24206094402E+01
 0.23067338213E+01 0.21754672506E+01 0.20465114798E+01 0.19156715319E+01 0.17634620292E+01
 0.16366239546E+01 0.15250545036E+01 0.14245036574E+01 0.13291565888E+01 0.12555960196E+01
 0.12079112686E+01 0.16429022460E+01 0.16551065833E+01 0.16844558401E+01 0.17340297834E+01
 0.17991315902E+01 0.18879124077E+01 0.19885537703E+01 0.20939103831E+01 0.21840825937E+01
 0.22917950043E+01 0.23958375613E+01 0.24867301492E+01 0.25780970940E+01 0.26564492567E+01
 0.27284295484E+01 0.27882910903E+01 0.28449118533E+01 0.28809034681E+01 0.29200963720E+01
 0.29531790498E+01 0.29725049952E+01 0.29833918339E+01 0.29913421048E+01 0.29963395202E+01
 0.29982881673E+01 0.29963395203E+01 0.29913421051E+01 0.29833918343E+01 0.29725049957E+01
 0.29531790503E+01 0.29200963725E+01 0.28809034689E+01 0.28449118541E+01 0.27882910911E+01
 0.27284295492E+01 0.26564492575E+01 0.25780970948E+01 0.24867301500E+01 0.23958375621E+01
 0.22917950050E+01 0.21840825944E+01 0.20939103838E+01 0.19885537709E+01 0.18879124081E+01
 0.17991315906E+01 0.17340297837E+01 0.16844558403E+01 0.16551065834E+01 0.20208214026E+01
 0.20274244627E+01 0.20525922616E+01 0.20921270042E+01 0.21463909247E+01 0.22037971441E+01
 0.22676646856E+01 0.23374874046E+01 0.24257869309E+01 0.24997873117E+01 0.25703085933E+01
 0.26452276008E+01 0.27057152975E+01 0.27660742996E+01 0.28126804268E+01 0.28601902064E+01
 0.28887474766E+01 0.29200963720E+01 0.29478978677E+01 0.29584849525E+01 0.29669493224E+01
 0.29747372602E+01 0.29824561082E+01 0.29863581776E+01 0.29883831998E+01 0.29863581777E+01
 0.29824561085E+01 0.29747372606E+01 0.29669493229E+01 0.29584849532E+01 0.29478978684E+01
 0.29200963726E+01 0.28887474774E+01 0.28601902072E+01 0.28126804277E+01 0.27660743005E+01
 0.27057152983E+01 0.26452276017E+01 0.25703085941E+01 0.24997873125E+01 0.24257869316E+01
 0.23374874052E+01 0.22676646861E+01 0.22037971446E+01 0.21463909251E+01 0.20921270045E+01
 0.20525922618E+01 0.20274244628E+01 0.23079036224E+01 0.23147808121E+01 0.23324672201E+01
 0.23597564226E+01 0.23957814415E+01 0.24443899981E+01 0.25014679270E+01 0.25606883739E+01
 0.26079506473E+01 0.26651116007E+01 0.27233620416E+01 0.27670781455E+01 0.28163642865E+01
 0.28509352869E+01 0.28875643459E+01 0.29111708703E+01 0.29305562851E+01 0.29531790498E+01
 0.29584849525E+01 0.29623118102E+01 0.29671237290E+01 0.29725101248E+01 0.29754593203E+01
 0.29773822420E+01 0.29775214582E+01 0.29773822421E+01 0.29754593205E+01 0.29725101252E+01
 0.29671237295E+01 0.29623118108E+01 0.29584849533E+01 0.29531790505E+01 0.29305562858E+01
 0.29111708713E+01 0.28875643467E+01 0.28509352878E+01 0.28163642874E+01 0.27670781464E+01
 0.27233620424E+01 0.26651116015E+01 0.26079506480E+01 0.25606883745E+01 0.25014679276E+01
 0.24443899986E+01 0.23957814420E+01 0.23597564229E+01 0.23324672203E+01 0.23147808122E+01
 0.25474947087E+01 0.25508200597E+01 0.25638824916E+01 0.25857866664E+01 0.26160149665E+01
 0.26470048470E+01 0.26798838623E+01 0.27150218666E+01 0.27642100480E+01 0.28019207881E+01
 0.28347137376E+01 0.28724223409E+01 0.28983818103E+01 0.29232251999E+01 0.29431351715E+01
 0.29528796046E+01 0.29663045044E+01 0.29725049952E+01 0.29669493224E+01 0.29671237290E+01
 0.29680033077E+01 0.29700108410E+01 0.29680664525E+01 0.29675260870E+01 0.29659079926E+01
 0.29675260871E+01 0.29680664527E+01 0.29700108414E+01 0.29680033082E+01 0.29671237296E+01
 0.29669493231E+01 0.29725049960E+01 0.29663045052E+01 0.29528796055E+01 0.29431351725E+01
 0.29232252008E+01 0.28983818113E+01 0.28724223418E+01 0.28347137384E+01 0.28019207890E+01
 0.27642100488E+01 0.27150218673E+01 0.26798838629E+01 0.26470048475E+01 0.26160149669E+01
 0.25857866667E+01 0.25638824918E+01 0.25508200598E+01 0.27125690456E+01 0.27180535203E+01
 0.27269626806E+01 0.27429415957E+01 0.27603520873E+01 0.27881770270E+01 0.28185042284E+01
 0.28526533028E+01 0.28715106495E+01 0.29008216253E+01 0.29281164538E+01 0.29458830977E+01
 0.29645203389E+01 0.29762707989E+01 0.29853285877E+01 0.29851914732E+01 0.29931314075E+01
 0.29833918339E+01 0.29747372602E+01 0.29725101248E+01 0.29700108410E+01 0.29641671437E+01
 0.29580472987E+01 0.29534010795E+01 0.29519125326E+01 0.29534010796E+01 0.29580472990E+01
 0.29641671442E+01 0.29700108415E+01 0.29725101254E+01 0.29747372609E+01 0.29833918348E+01
 0.29931314084E+01 0.29851914741E+01 0.29853285887E+01 0.29762707998E+01 0.29645203399E+01
 0.29458830987E+01 0.29281164547E+01 0.29008216261E+01 0.28715106503E+01 0.28526533035E+01
 0.28185042290E+01 0.27881770275E+01 0.27603520877E+01 0.27429415960E+01 0.27269626808E+01
 0.27180535204E+01 0.28417144017E+01 0.28432375509E+01 0.28501816535E+01 0.28628182719E+01
 0.28803630466E+01 0.28969880032E+01 0.29128084894E+01 0.29291892141E+01 0.29567552430E+01
 0.29746899276E+01 0.29854372724E+01 0.30034566027E+01 0.30071263872E+01 0.30159894845E+01
 0.30123511642E+01 0.30107879561E+01 0.30083849013E+01 0.29913421048E+01 0.29824561082E+01
 0.29754593203E+01 0.29680664525E+01 0.29580472987E+01 0.29497567093E+01 0.29438382689E+01
 0.29425987504E+01 0.29438382691E+01 0.29497567096E+01 0.29580472992E+01 0.29680664530E+01
 0.29754593209E+01 0.29824561089E+01 0.29913421057E+01 0.30083849022E+01 0.30107879569E+01
 0.30123511652E+01 0.30159894854E+01 0.30071263882E+01 0.30034566036E+01 0.29854372733E+01
 0.29746899284E+01 0.29567552437E+01 0.29291892148E+01 0.29128084900E+01 0.28969880037E+01
 0.28803630470E+01 0.28628182722E+01 0.28501816537E+01 0.28432375510E+01 0.29049468416E+01
 0.29087992755E+01 0.29146434180E+01 0.29244168611E+01 0.29342816236E+01 0.29516003478E+01
 0.29706610586E+01 0.29920756838E+01 0.29985820211E+01 0.30136698417E+01 0.30273430103E+01
 0.30315430781E+01 0.30362842153E+01 0.30367963703E+01 0.30302567546E+01 0.30247071120E+01
 0.30174893150E+01 0.29963395202E+01 0.29863581776E+01 0.29773822420E+01 0.29675260870E+01
 0.29534010795E+01 0.29438382689E+01 0.29375745254E+01 0.29371371330E+01 0.29375745255E+01
 0.29438382692E+01 0.29534010799E+01 0.29675260875E+01 0.29773822426E+01 0.29863581783E+01
 0.29963395210E+01 0.30174893160E+01 0.30247071129E+01 0.30302567556E+01 0.30367963712E+01
 0.30362842162E+01 0.30315430790E+01 0.30273430112E+01 0.30136698425E+01 0.29985820219E+01
 0.29920756845E+01 0.29706610592E+01 0.29516003483E+01 0.29342816240E+01 0.29244168614E+01
 0.29146434182E+01 0.29087992756E+01 0.29365920518E+01 0.29371371330E+01 0.29425987505E+01
 0.29519125326E+01 0.29659079926E+01 0.29775214583E+01 0.29883831999E+01 0.29982881673E+01
 0.30195074662E+01 0.30304715279E+01 0.30347791289E+01 0.30456163636E+01 0.30429492374E+01
 0.30456163636E+01 0.30347791288E+01 0.30304715279E+01 0.30195074661E+01 0.29982881673E+01
 0.29883831998E+01 0.29775214582E+01 0.29659079926E+01 0.29519125326E+01 0.29425987504E+01
 0.29371371330E+01 0.29365920518E+01 0.29371371331E+01 0.29425987507E+01 0.29519125330E+01
 0.29659079931E+01 0.29775214589E+01 0.29883832005E+01 0.29982881681E+01 0.30195074671E+01
 0.30304715287E+01 0.30347791298E+01 0.30456163645E+01 0.30429492383E+01 0.30456163645E+01
 0.30347791298E+01 0.30304715287E+01 0.30195074670E+01 0.29982881680E+01 0.29883832005E+01
 0.29775214588E+01 0.29659079931E+01 0.29519125330E+01 0.29425987507E+01 0.29371371331E+01
 0.29049468417E+01 0.29087992755E+01 0.29146434181E+01 0.29244168612E+01 0.29342816236E+01
 0.29516003479E+01 0.29706610587E+01 0.29920756839E+01 0.29985820212E+01 0.30136698418E+01
 0.30273430104E+01 0.30315430782E+01 0.30362842154E+01 0.30367963704E+01 0.30302567547E+01
 0.30247071121E+01 0.30174893151E+01 0.29963395203E+01 0.29863581777E+01 0.29773822421E+01
 0.29675260871E+01 0.29534010796E+01 0.29438382691E+01 0.29375745255E+01 0.29371371331E+01
 0.29375745256E+01 0.29438382694E+01 0.29534010801E+01 0.29675260877E+01 0.29773822427E+01
 0.29863581784E+01 0.29963395211E+01 0.30174893161E+01 0.30247071130E+01 0.30302567557E+01
 0.30367963714E+01 0.30362842163E+01 0.30315430791E+01 0.30273430113E+01 0.30136698426E+01
 0.29985820220E+01 0.29920756846E+01 0.29706610593E+01 0.29516003484E+01 0.29342816240E+01
 0.29244168615E+01 0.29146434183E+01 0.29087992756E+01 0.28417144018E+01 0.28432375510E+01
 0.28501816536E+01 0.28628182720E+01 0.28803630467E+01 0.28969880033E+01 0.29128084895E+01
 0.29291892142E+01 0.29567552431E+01 0.29746899277E+01 0.29854372725E+01 0.30034566029E+01
 0.30071263874E+01 0.30159894847E+01 0.30123511644E+01 0.30107879563E+01 0.30083849015E+01
 0.29913421051E+01 0.29824561085E+01 0.29754593205E+01 0.29680664527E+01 0.29580472990E+01
 0.29497567096E+01 0.29438382692E+01 0.29425987507E+01 0.29438382694E+01 0.29497567099E+01
 0.29580472994E+01 0.29680664532E+01 0.29754593211E+01 0.29824561092E+01 0.29913421060E+01
 0.30083849024E+01 0.30107879571E+01 0.30123511654E+01 0.30159894856E+01 0.30071263884E+01
 0.30034566038E+01 0.29854372734E+01 0.29746899286E+01 0.29567552439E+01 0.29291892149E+01
 0.29128084901E+01 0.28969880039E+01 0.28803630471E+01 0.28628182723E+01 0.28501816538E+01
 0.28432375511E+01 0.27125690457E+01 0.27180535205E+01 0.27269626807E+01 0.27429415958E+01
 0.27603520875E+01 0.27881770272E+01 0.28185042286E+01 0.28526533030E+01 0.28715106498E+01
 0.29008216255E+01 0.29281164540E+01 0.29458830980E+01 0.29645203392E+01 0.29762707992E+01
 0.29853285881E+01 0.29851914735E+01 0.29931314079E+01 0.29833918343E+01 0.29747372606E+01
 0.29725101252E+01 0.29700108414E+01 0.29641671442E+01 0.29580472992E+01 0.29534010799E+01
 0.29519125330E+01 0.29534010801E+01 0.29580472994E+01 0.29641671446E+01 0.29700108419E+01
 0.29725101258E+01 0.29747372613E+01 0.29833918351E+01 0.29931314087E+01 0.29851914744E+01
 0.29853285891E+01 0.29762708001E+01 0.29645203401E+01 0.29458830989E+01 0.29281164549E+01
 0.29008216263E+01 0.28715106505E+01 0.28526533037E+01 0.28185042292E+01 0.27881770277E+01
 0.27603520879E+01 0.27429415962E+01 0.27269626810E+01 0.27180535206E+01 0.25474947090E+01
 0.25508200599E+01 0.25638824918E+01 0.25857866666E+01 0.26160149667E+01 0.26470048472E+01
 0.26798838626E+01 0.27150218669E+01 0.27642100483E+01 0.28019207884E+01 0.28347137379E+01
 0.28724223413E+01 0.28983818107E+01 0.29232252003E+01 0.29431351720E+01 0.29528796050E+01
 0.29663045048E+01 0.29725049957E+01 0.29669493229E+01 0.29671237295E+01 0.29680033082E+01
 0.29700108415E+01 0.29680664530E+01 0.29675260875E+01 0.29659079931E+01 0.29675260877E+01
 0.29680664532E+01 0.29700108419E+01 0.29680033086E+01 0.29671237301E+01 0.29669493236E+01
 0.29725049965E+01 0.29663045056E+01 0.29528796059E+01 0.29431351729E+01 0.29232252012E+01
 0.28983818116E+01 0.28724223421E+01 0.28347137388E+01 0.28019207893E+01 0.27642100491E+01
 0.27150218676E+01 0.26798838632E+01 0.26470048477E+01 0.26160149672E+01 0.25857866669E+01
 0.25638824920E+01 0.25508200600E+01 0.23079036227E+01 0.23147808124E+01 0.23324672204E+01
 0.23597564228E+01 0.23957814418E+01 0.24443899984E+01 0.25014679274E+01 0.25606883742E+01
 0.26079506476E+01 0.26651116011E+01 0.27233620420E+01 0.27670781459E+01 0.28163642869E+01
 0.28509352873E+01 0.28875643463E+01 0.29111708709E+01 0.29305562856E+01 0.29531790503E+01
 0.29584849532E+01 0.29623118108E+01 0.29671237296E+01 0.29725101254E+01 0.29754593209E+01
 0.29773822426E+01 0.29775214589E+01 0.29773822427E+01 0.29754593211E+01 0.29725101258E+01
 0.29671237301E+01 0.29623118114E+01 0.29584849539E+01 0.29531790511E+01 0.29305562863E+01
 0.29111708718E+01 0.28875643472E+01 0.28509352883E+01 0.28163642878E+01 0.27670781468E+01
 0.27233620428E+01 0.26651116019E+01 0.26079506483E+01 0.25606883749E+01 0.25014679280E+01
 0.24443899989E+01 0.23957814422E+01 0.23597564231E+01 0.23324672206E+01 0.23147808125E+01
 0.20208214029E+01 0.20274244631E+01 0.20525922619E+01 0.20921270045E+01 0.21463909251E+01
 0.22037971445E+01 0.22676646859E+01 0.23374874049E+01 0.24257869313E+01 0.24997873122E+01
 0.25703085937E+01 0.26452276013E+01 0.27057152980E+01 0.27660743002E+01 0.28126804273E+01
 0.28601902070E+01 0.28887474772E+01 0.29200963725E+01 0.29478978684E+01 0.29584849533E+01
 0.29669493231E+01 0.29747372609E+01 0.29824561089E+01 0.29863581783E+01 0.29883832005E+01
 0.29863581784E+01 0.29824561092E+01 0.29747372613E+01 0.29669493236E+01 0.29584849539E+01
 0.29478978691E+01 0.29200963732E+01 0.28887474781E+01 0.28601902078E+01 0.28126804282E+01
 0.27660743011E+01 0.27057152988E+01 0.26452276022E+01 0.25703085945E+01 0.24997873129E+01
 0.24257869320E+01 0.23374874056E+01 0.22676646865E+01 0.22037971449E+01 0.21463909255E+01
 0.20921270048E+01 0.20525922621E+01 0.20274244632E+01 0.16429022464E+01 0.16551065836E+01
 0.16844558405E+01 0.17340297838E+01 0.17991315906E+01 0.18879124081E+01 0.19885537707E+01
 0.20939103836E+01 0.21840825941E+01 0.22917950048E+01 0.23958375619E+01 0.24867301497E+01
 0.25780970945E+01 0.26564492572E+01 0.27284295490E+01 0.27882910909E+01 0.28449118540E+01
 0.28809034689E+01 0.29200963726E+01 0.29531790505E+01 0.29725049960E+01 0.29833918348E+01
 0.29913421057E+01 0.29963395210E+01 0.29982881681E+01 0.29963395211E+01 0.29913421060E+01
 0.29833918351E+01 0.29725049965E+01 0.29531790511E+01 0.29200963732E+01 0.28809034697E+01
 0.28449118548E+01 0.27882910917E+01 0.27284295499E+01 0.26564492581E+01 0.25780970954E+01
 0.24867301505E+01 0.23958375627E+01 0.22917950055E+01 0.21840825948E+01 0.20939103842E+01
 0.19885537713E+01 0.18879124085E+01 0.17991315910E+01 0.17340297841E+01 0.16844558407E+01
 0.16551065837E+01 0.11937391556E+01 0.12079112689E+01 0.12555960198E+01 0.13291565889E+01
 0.14245036575E+01 0.15250545036E+01 0.16366239545E+01 0.17634620290E+01 0.19156715317E+01
 0.20465114796E+01 0.21754672504E+01 0.23067338210E+01 0.24206094400E+01 0.25294589647E+01
 0.26243886846E+01 0.27084523890E+01 0.27799091745E+01 0.28449118541E+01 0.28887474774E+01
 0.29305562858E+01 0.29663045052E+01 0.29931314084E+01 0.30083849022E+01 0.30174893160E+01
 0.30195074671E+01 0.30174893161E+01 0.30083849024E+01 0.29931314087E+01 0.29663045056E+01
 0.29305562863E+01 0.28887474781E+01 0.28449118548E+01 0.27799091752E+01 0.27084523898E+01
 0.26243886854E+01 0.25294589655E+01 0.24206094408E+01 0.23067338218E+01 0.21754672511E+01
 0.20465114803E+01 0.19156715324E+01 0.17634620296E+01 0.16366239551E+01 0.15250545040E+01
 0.14245036578E+01 0.13291565892E+01 0.12555960200E+01 0.12079112690E+01 0.68205949845E+00
 0.69259523342E+00 0.72251057188E+00 0.78605895148E+00 0.89272860486E+00 0.10518208925E+01
 0.12353171345E+01 0.14130734777E+01 0.15688375068E+01 0.17528578042E+01 0.19289456629E+01
 0.20858242489E+01 0.22420482912E+01 0.23780836795E+01 0.25039654657E+01 0.26132540731E+01
 0.27084523891E+01 0.27882910911E+01 0.28601902072E+01 0.29111708713E+01 0.29528796055E+01
 0.29851914741E+01 0.30107879569E+01 0.30247071129E+01 0.30304715287E+01 0.30247071130E+01
 0.30107879571E+01 0.29851914744E+01 0.29528796059E+01 0.29111708718E+01 0.28601902078E+01
 0.27882910917E+01 0.27084523898E+01 0.26132540738E+01 0.25039654664E+01 0.23780836802E+01
 0.22420482920E+01 0.20858242497E+01 0.19289456637E+01 0.17528578049E+01 0.15688375074E+01
 0.14130734783E+01 0.12353171350E+01 0.10518208929E+01 0.89272860522E+00 0.78605895176E+00