unknown system                          
   1.0000000000000000     
     4.282000    0.000000    0.000000
     0.000000    4.282000    0.000000
     0.000000    0.000000    4.282000
   Na
     2
Direct
  0.000000  0.000000  0.000000
  0.500000  0.500000  0.500000

   48   48   48
 -.36493370369E+02 -.35082644643E+02 -.33815648220E+02 -.32747269335E+02 -.30595289076E+02
 -.27917960197E+02 -.24645644630E+02 -.20902515268E+02 -.16781705668E+02 -.12552677461E+02
 -.85849981536E+01 -.51064490072E+01 -.21496801940E+01 -.46101426467E-01 0.64234906398E+00
 0.68205910964E+00 0.11937391086E+01 0.16429025111E+01 0.20208219434E+01 0.23079043994E+01
 0.25474956805E+01 0.27125701695E+01 0.28417156346E+01 0.29049481399E+01 0.29365933719E+01
 0.29049481400E+01 0.28417156347E+01 0.27125701697E+01 0.25474956807E+01 0.23079043997E+01
 0.20208219437E+01 0.16429025114E+01 0.11937391090E+01 0.68205911005E+00 0.64234906441E+00
 -.46101426033E-01 -.21496801936E+01 -.51064490068E+01 -.85849981532E+01 -.12552677461E+02
 -.16781705668E+02 -.20902515268E+02 -.24645644630E+02 -.27917960197E+02 -.30595289076E+02
 -.32747269335E+02 -.33815648220E+02 -.35082644643E+02 -.35082644643E+02 -.34392727725E+02
 -.33653687291E+02 -.32447891003E+02 -.30295824825E+02 -.27621208399E+02 -.24361919583E+02
 -.20616810275E+02 -.16512652583E+02 -.12329356914E+02 -.83984299249E+01 -.49601906144E+01
 -.20442106041E+01 0.95586823128E-02 0.64079412169E+00 0.69259485306E+00 0.12079112287E+01
 0.16551068534E+01 0.20274250071E+01 0.23147815914E+01 0.25508210327E+01 0.27180546446E+01
 0.28432387835E+01 0.29088005731E+01 0.29371384523E+01 0.29088005732E+01 0.28432387836E+01
 0.27180546448E+01 0.25508210329E+01 0.23147815917E+01 0.20274250074E+01 0.16551068538E+01
 0.12079112291E+01 0.69259485347E+00 0.64079412211E+00 0.95586827516E-02 -.20442106037E+01
 -.49601906140E+01 -.83984299245E+01 -.12329356914E+02 -.16512652583E+02 -.20616810274E+02
 -.24361919583E+02 -.27621208399E+02 -.30295824825E+02 -.32447891003E+02 -.33653687290E+02
 -.34392727725E+02 -.33815648220E+02 -.33653687291E+02 -.33007297215E+02 -.31526149945E+02
 -.29403182817E+02 -.26721370429E+02 -.23484096767E+02 -.19772993465E+02 -.15746006069E+02
 -.11644121867E+02 -.78630057284E+01 -.45317407059E+01 -.17335077523E+01 0.15550676073E+00
 0.63785118173E+00 0.72251021668E+00 0.12555959996E+01 0.16844561255E+01 0.20525928167E+01
 0.23324680063E+01 0.25638834683E+01 0.27269638061E+01 0.28501828855E+01 0.29146447139E+01
 0.29426000677E+01 0.29146447140E+01 0.28501828856E+01 0.27269638063E+01 0.25638834686E+01
 0.23324680066E+01 0.20525928170E+01 0.16844561258E+01 0.12555960000E+01 0.72251021710E+00
 0.63785118217E+00 0.15550676117E+00 -.17335077518E+01 -.45317407055E+01 -.78630057280E+01
 -.11644121866E+02 -.15746006069E+02 -.19772993465E+02 -.23484096767E+02 -.26721370428E+02
 -.29403182817E+02 -.31526149945E+02 -.33007297215E+02 -.33653687291E+02 -.32747269335E+02
 -.32447891003E+02 -.31526149945E+02 -.29997582100E+02 -.27915346541E+02 -.25245122939E+02
 -.22047236636E+02 -.18393816502E+02 -.14475733295E+02 -.10575366478E+02 -.69985297958E+01
 -.38544425947E+01 -.12518225459E+01 0.34893895129E+00 0.62452933465E+00 0.78605863761E+00
 0.13291566017E+01 0.17340300937E+01 0.20921275770E+01 0.23597572203E+01 0.25857876494E+01
 0.27429427233E+01 0.28628195030E+01 0.29244181542E+01 0.29519138464E+01 0.29244181543E+01
 0.28628195031E+01 0.27429427235E+01 0.25857876496E+01 0.23597572206E+01 0.20921275773E+01
 0.17340300941E+01 0.13291566021E+01 0.78605863804E+00 0.62452933509E+00 0.34893895174E+00
 -.12518225455E+01 -.38544425943E+01 -.69985297954E+01 -.10575366478E+02 -.14475733295E+02
 -.18393816502E+02 -.22047236636E+02 -.25245122939E+02 -.27915346541E+02 -.29997582100E+02
 -.31526149945E+02 -.32447891003E+02 -.30595289076E+02 -.30295824825E+02 -.29403182817E+02
 -.27915346541E+02 -.25837121414E+02 -.23195564565E+02 -.20054055536E+02 -.16524232659E+02
 -.12799790490E+02 -.91615540164E+01 -.58745613471E+01 -.29738096062E+01 -.66022593399E+00
 0.51870346763E+00 0.61100187626E+00 0.89272834759E+00 0.14245037154E+01 0.17991319347E+01
 0.21463915219E+01 0.23957822551E+01 0.26160159582E+01 0.27603532180E+01 0.28803642766E+01
 0.29342829131E+01 0.29659093020E+01 0.29342829132E+01 0.28803642768E+01 0.27603532182E+01
 0.26160159585E+01 0.23957822554E+01 0.21463915222E+01 0.17991319351E+01 0.14245037158E+01
 0.89272834803E+00 0.61100187672E+00 0.51870346810E+00 -.66022593353E+00 -.29738096058E+01
 -.58745613467E+01 -.91615540160E+01 -.12799790490E+02 -.16524232659E+02 -.20054055535E+02
 -.23195564565E+02 -.25837121414E+02 -.27915346541E+02 -.29403182817E+02 -.30295824825E+02
 -.27917960197E+02 -.27621208399E+02 -.26721370429E+02 -.25245122939E+02 -.23195564565E+02
 -.20623343598E+02 -.17590179679E+02 -.14237616840E+02 -.10785681580E+02 -.75255987607E+01
 -.45467594547E+01 -.19588727595E+01 -.68799366062E-01 0.60696705301E+00 0.62483420475E+00
 0.10518207058E+01 0.15250546176E+01 0.18879127947E+01 0.22037977717E+01 0.24443908315E+01
 0.26470058498E+01 0.27881781619E+01 0.28969892324E+01 0.29516016334E+01 0.29775227626E+01
 0.29516016334E+01 0.28969892325E+01 0.27881781621E+01 0.26470058500E+01 0.24443908318E+01
 0.22037977720E+01 0.18879127951E+01 0.15250546181E+01 0.10518207063E+01 0.62483420522E+00
 0.60696705349E+00 -.68799365580E-01 -.19588727590E+01 -.45467594542E+01 -.75255987602E+01
 -.10785681580E+02 -.14237616839E+02 -.17590179679E+02 -.20623343597E+02 -.23195564565E+02
 -.25245122939E+02 -.26721370428E+02 -.27621208399E+02 -.24645644630E+02 -.24361919583E+02
 -.23484096767E+02 -.22047236636E+02 -.20054055536E+02 -.17590179679E+02 -.14725995099E+02
 -.11664994862E+02 -.86066102007E+01 -.57262977046E+01 -.31085764180E+01 -.91969799847E+00
 0.38624190901E+00 0.59753585882E+00 0.72645522359E+00 0.12353170309E+01 0.16366241345E+01
 0.19885542075E+01 0.22676653490E+01 0.25014687840E+01 0.26798848784E+01 0.28185053685E+01
 0.29128097179E+01 0.29706623400E+01 0.29883844989E+01 0.29706623400E+01 0.29128097180E+01
 0.28185053687E+01 0.26798848787E+01 0.25014687843E+01 0.22676653494E+01 0.19885542079E+01
 0.16366241350E+01 0.12353170314E+01 0.72645522408E+00 0.59753585932E+00 0.38624190951E+00
 -.91969799797E+00 -.31085764175E+01 -.57262977042E+01 -.86066102002E+01 -.11664994862E+02
 -.14725995099E+02 -.17590179679E+02 -.20054055535E+02 -.22047236636E+02 -.23484096767E+02
 -.24361919583E+02 -.20902515268E+02 -.20616810275E+02 -.19772993465E+02 -.18393816502E+02
 -.16524232659E+02 -.14237616840E+02 -.11664994862E+02 -.89857177389E+01 -.63495080875E+01
 -.38870527296E+01 -.16567630039E+01 -.34497157757E-01 0.58491809454E+00 0.58686651510E+00
 0.93428343965E+00 0.14130734676E+01 0.17634622833E+01 0.20939108768E+01 0.23374881086E+01
 0.25606892576E+01 0.27150228982E+01 0.28526544493E+01 0.29291904425E+01 0.29920769611E+01
 0.29982894609E+01 0.29920769612E+01 0.29291904426E+01 0.28526544495E+01 0.27150228984E+01
 0.25606892580E+01 0.23374881090E+01 0.20939108772E+01 0.17634622838E+01 0.14130734680E+01
 0.93428344016E+00 0.58686651563E+00 0.58491809506E+00 -.34497157238E-01 -.16567630034E+01
 -.38870527291E+01 -.63495080871E+01 -.89857177385E+01 -.11664994862E+02 -.14237616839E+02
 -.16524232659E+02 -.18393816502E+02 -.19772993465E+02 -.20616810274E+02 -.16781705668E+02
 -.16512652583E+02 -.15746006069E+02 -.14475733295E+02 -.12799790490E+02 -.10785681580E+02
 -.86066102007E+01 -.63495080875E+01 -.41622813600E+01 -.20696706606E+01 -.40488015287E+00
 0.48556307167E+00 0.57538596091E+00 0.71222135707E+00 0.11983592823E+01 0.15688375985E+01
 0.19156718668E+01 0.21840831489E+01 0.24257876793E+01 0.26079515606E+01 0.27642110968E+01
 0.28715118035E+01 0.29567564719E+01 0.29985832948E+01 0.30195087548E+01 0.29985832949E+01
 0.29567564720E+01 0.28715118038E+01 0.27642110971E+01 0.26079515609E+01 0.24257876797E+01
 0.21840831493E+01 0.19156718673E+01 0.15688375990E+01 0.11983592828E+01 0.71222135762E+00
 0.57538596146E+00 0.48556307221E+00 -.40488015235E+00 -.20696706601E+01 -.41622813595E+01
 -.63495080871E+01 -.86066102003E+01 -.10785681580E+02 -.12799790490E+02 -.14475733295E+02
 -.15746006069E+02 -.16512652583E+02 -.12552677461E+02 -.12329356914E+02 -.11644121867E+02
 -.10575366478E+02 -.91615540164E+01 -.75255987607E+01 -.57262977046E+01 -.38870527296E+01
 -.20696706606E+01 -.54636611486E+00 0.38758652534E+00 0.58736858556E+00 0.60072429195E+00
 0.10145206569E+01 0.14139310537E+01 0.17528580038E+01 0.20465119004E+01 0.22917956249E+01
 0.24997881074E+01 0.26651125458E+01 0.28019218557E+01 0.29008227879E+01 0.29746911579E+01
 0.30136711125E+01 0.30304728121E+01 0.30136711126E+01 0.29746911581E+01 0.29008227881E+01
 0.28019218560E+01 0.26651125461E+01 0.24997881079E+01 0.22917956254E+01 0.20465119009E+01
 0.17528580044E+01 0.14139310543E+01 0.10145206574E+01 0.60072429253E+00 0.58736858613E+00
 0.38758652589E+00 -.54636611434E+00 -.20696706601E+01 -.38870527291E+01 -.57262977042E+01
 -.75255987603E+01 -.91615540161E+01 -.10575366478E+02 -.11644121867E+02 -.12329356914E+02
 -.85849981536E+01 -.83984299249E+01 -.78630057284E+01 -.69985297958E+01 -.58745613471E+01
 -.45467594547E+01 -.31085764180E+01 -.16567630039E+01 -.40488015287E+00 0.38758652534E+00
 0.59063766511E+00 0.56269379871E+00 0.89638612046E+00 0.13005814471E+01 0.16271669452E+01
 0.19289459740E+01 0.21754677598E+01 0.23958382497E+01 0.25703094382E+01 0.27233630199E+01
 0.28347148251E+01 0.29281176262E+01 0.29854385052E+01 0.30273442792E+01 0.30347804098E+01
 0.30273442793E+01 0.29854385054E+01 0.29281176265E+01 0.28347148255E+01 0.27233630203E+01
 0.25703094387E+01 0.23958382502E+01 0.21754677603E+01 0.19289459746E+01 0.16271669458E+01
 0.13005814477E+01 0.89638612108E+00 0.56269379931E+00 0.59063766570E+00 0.38758652589E+00
 -.40488015236E+00 -.16567630035E+01 -.31085764176E+01 -.45467594544E+01 -.58745613468E+01
 -.69985297956E+01 -.78630057283E+01 -.83984299249E+01 -.51064490072E+01 -.49601906144E+01
 -.45317407059E+01 -.38544425947E+01 -.29738096062E+01 -.19588727595E+01 -.91969799847E+00
 -.34497157757E-01 0.48556307167E+00 0.58736858556E+00 0.56269379871E+00 0.85681986901E+00
 0.12393113994E+01 0.15487993897E+01 0.18422996009E+01 0.20858246729E+01 0.23067344202E+01
 0.24867309063E+01 0.26452284959E+01 0.27670791580E+01 0.28724234495E+01 0.29458842810E+01
 0.30034578391E+01 0.30315443463E+01 0.30456176424E+01 0.30315443464E+01 0.30034578393E+01
 0.29458842813E+01 0.28724234499E+01 0.27670791584E+01 0.26452284964E+01 0.24867309068E+01
 0.23067344208E+01 0.20858246735E+01 0.18422996015E+01 0.15487993904E+01 0.12393114001E+01
 0.85681986964E+00 0.56269379932E+00 0.58736858614E+00 0.48556307220E+00 -.34497157268E-01
 -.91969799804E+00 -.19588727591E+01 -.29738096059E+01 -.38544425945E+01 -.45317407058E+01
 -.49601906144E+01 -.21496801940E+01 -.20442106041E+01 -.17335077523E+01 -.12518225459E+01
 -.66022593399E+00 -.68799366062E-01 0.38624190901E+00 0.58491809454E+00 0.57538596091E+00
 0.60072429195E+00 0.89638612046E+00 0.12393113994E+01 0.15221680105E+01 0.17964628258E+01
 0.20289827785E+01 0.22420488271E+01 0.24206101282E+01 0.25780979195E+01 0.27057162427E+01
 0.28163653334E+01 0.28983829406E+01 0.29645215340E+01 0.30071276284E+01 0.30362854841E+01
 0.30429505154E+01 0.30362854842E+01 0.30071276286E+01 0.29645215342E+01 0.28983829410E+01
 0.28163653339E+01 0.27057162432E+01 0.25780979201E+01 0.24206101288E+01 0.22420488277E+01
 0.20289827792E+01 0.17964628265E+01 0.15221680112E+01 0.12393114001E+01 0.89638612111E+00
 0.60072429256E+00 0.57538596148E+00 0.58491809505E+00 0.38624190946E+00 -.68799365675E-01
 -.66022593368E+00 -.12518225457E+01 -.17335077521E+01 -.20442106040E+01 -.46101426467E-01
 0.95586823128E-02 0.15550676073E+00 0.34893895129E+00 0.51870346763E+00 0.60696705301E+00
 0.59753585882E+00 0.58686651510E+00 0.71222135707E+00 0.10145206569E+01 0.13005814471E+01
 0.15487993897E+01 0.17964628258E+01 0.20094625925E+01 0.22081323872E+01 0.23780843243E+01
 0.25294597397E+01 0.26564501490E+01 0.27660752940E+01 0.28509363681E+01 0.29232263523E+01
 0.29762720066E+01 0.30159907317E+01 0.30367976412E+01 0.30456176424E+01 0.30367976413E+01
 0.30159907319E+01 0.29762720069E+01 0.29232263526E+01 0.28509363686E+01 0.27660752946E+01
 0.26564501495E+01 0.25294597403E+01 0.23780843250E+01 0.22081323879E+01 0.20094625932E+01
 0.17964628265E+01 0.15487993904E+01 0.13005814478E+01 0.10145206575E+01 0.71222135766E+00
 0.58686651564E+00 0.59753585929E+00 0.60696705341E+00 0.51870346796E+00 0.34893895154E+00
 0.15550676090E+00 0.95586823986E-02 0.64234906398E+00 0.64079412169E+00 0.63785118173E+00
 0.62452933465E+00 0.61100187626E+00 0.62483420475E+00 0.72645522359E+00 0.93428343965E+00
 0.11983592823E+01 0.14139310537E+01 0.16271669452E+01 0.18422996009E+01 0.20289827785E+01
 0.22081323872E+01 0.23634123598E+01 0.25039662145E+01 0.26243895425E+01 0.27284305047E+01
 0.28126814687E+01 0.28875654605E+01 0.29431363459E+01 0.29853298087E+01 0.30123524184E+01
 0.30302580288E+01 0.30347804097E+01 0.30302580289E+01 0.30123524186E+01 0.29853298090E+01
 0.29431363463E+01 0.28875654610E+01 0.28126814692E+01 0.27284305053E+01 0.26243895432E+01
 0.25039662153E+01 0.23634123605E+01 0.22081323879E+01 0.20289827792E+01 0.18422996016E+01
 0.16271669459E+01 0.14139310544E+01 0.11983592829E+01 0.93428344021E+00 0.72645522408E+00
 0.62483420517E+00 0.61100187661E+00 0.62452933491E+00 0.63785118191E+00 0.64079412178E+00
 0.68205910964E+00 0.69259485306E+00 0.72251021668E+00 0.78605863761E+00 0.89272834759E+00
 0.10518207058E+01 0.12353170309E+01 0.14130734676E+01 0.15688375985E+01 0.17528580038E+01
 0.19289459740E+01 0.20858246729E+01 0.22420488271E+01 0.23780843243E+01 0.25039662145E+01
 0.26132549193E+01 0.27084533246E+01 0.27882921069E+01 0.28601912932E+01 0.29111720171E+01
 0.29528808006E+01 0.29851927077E+01 0.30107892182E+01 0.30247083907E+01 0.30304728121E+01
 0.30247083908E+01 0.30107892184E+01 0.29851927080E+01 0.29528808010E+01 0.29111720176E+01
 0.28601912938E+01 0.27882921075E+01 0.27084533254E+01 0.26132549201E+01 0.25039662153E+01
 0.23780843251E+01 0.22420488279E+01 0.20858246736E+01 0.19289459747E+01 0.17528580045E+01
 0.15688375991E+01 0.14130734681E+01 0.12353170314E+01 0.10518207063E+01 0.89272834795E+00
 0.78605863789E+00 0.72251021687E+00 0.69259485315E+00 0.11937391086E+01 0.12079112287E+01
 0.12555959996E+01 0.13291566017E+01 0.14245037154E+01 0.15250546176E+01 0.16366241345E+01
 0.17634622833E+01 0.19156718668E+01 0.20465119004E+01 0.21754677598E+01 0.23067344202E+01
 0.24206101282E+01 0.25294597397E+01 0.26243895425E+01 0.27084533246E+01 0.27799101816E+01
 0.28449129254E+01 0.28887486052E+01 0.29305574621E+01 0.29663057213E+01 0.29931326556E+01
 0.30083861718E+01 0.30174905991E+01 0.30195087547E+01 0.30174905992E+01 0.30083861721E+01
 0.29931326560E+01 0.29663057217E+01 0.29305574626E+01 0.28887486059E+01 0.28449129261E+01
 0.27799101823E+01 0.27084533254E+01 0.26243895433E+01 0.25294597405E+01 0.24206101290E+01
 0.23067344210E+01 0.21754677605E+01 0.20465119011E+01 0.19156718675E+01 0.17634622839E+01
 0.16366241351E+01 0.15250546181E+01 0.14245037157E+01 0.13291566020E+01 0.12555959998E+01
 0.12079112288E+01 0.16429025111E+01 0.16551068534E+01 0.16844561255E+01 0.17340300937E+01
 0.17991319347E+01 0.18879127947E+01 0.19885542075E+01 0.20939108768E+01 0.21840831489E+01
 0.22917956249E+01 0.23958382497E+01 0.24867309063E+01 0.25780979195E+01 0.26564501490E+01
 0.27284305047E+01 0.27882921069E+01 0.28449129254E+01 0.28809045905E+01 0.29200975388E+01
 0.29531802547E+01 0.29725062317E+01 0.29833930952E+01 0.29913433841E+01 0.29963408102E+01
 0.29982894609E+01 0.29963408103E+01 0.29913433843E+01 0.29833930956E+01 0.29725062322E+01
 0.29531802553E+01 0.29200975393E+01 0.28809045913E+01 0.28449129262E+01 0.27882921076E+01
 0.27284305056E+01 0.26564501498E+01 0.25780979203E+01 0.24867309071E+01 0.23958382505E+01
 0.22917956256E+01 0.21840831496E+01 0.20939108774E+01 0.19885542080E+01 0.18879127952E+01
 0.17991319351E+01 0.17340300940E+01 0.16844561257E+01 0.16551068535E+01 0.20208219434E+01
 0.20274250071E+01 0.20525928167E+01 0.20921275770E+01 0.21463915219E+01 0.22037977717E+01
 0.22676653490E+01 0.23374881086E+01 0.24257876793E+01 0.24997881074E+01 0.25703094382E+01
 0.26452284959E+01 0.27057162427E+01 0.27660752940E+01 0.28126814687E+01 0.28601912932E+01
 0.28887486052E+01 0.29200975388E+01 0.29478990684E+01 0.29584861827E+01 0.29669505770E+01
 0.29747385341E+01 0.29824573960E+01 0.29863594738E+01 0.29883844988E+01 0.29863594739E+01
 0.29824573962E+01 0.29747385344E+01 0.29669505775E+01 0.29584861833E+01 0.29478990691E+01
 0.29200975394E+01 0.28887486061E+01 0.28601912941E+01 0.28126814695E+01 0.27660752949E+01
 0.27057162435E+01 0.26452284968E+01 0.25703094390E+01 0.24997881082E+01 0.24257876801E+01
 0.23374881092E+01 0.22676653496E+01 0.22037977722E+01 0.21463915223E+01 0.20921275773E+01
 0.20525928169E+01 0.20274250072E+01 0.23079043994E+01 0.23147815914E+01 0.23324680063E+01
 0.23597572203E+01 0.23957822551E+01 0.24443908315E+01 0.25014687840E+01 0.25606892576E+01
 0.26079515606E+01 0.26651125458E+01 0.27233630199E+01 0.27670791580E+01 0.28163653334E+01
 0.28509363681E+01 0.28875654605E+01 0.29111720171E+01 0.29305574621E+01 0.29531802547E+01
 0.29584861827E+01 0.29623130624E+01 0.29671249996E+01 0.29725114101E+01 0.29754606161E+01
 0.29773835442E+01 0.29775227626E+01 0.29773835443E+01 0.29754606163E+01 0.29725114104E+01
 0.29671250001E+01 0.29623130630E+01 0.29584861834E+01 0.29531802555E+01 0.29305574628E+01
 0.29111720180E+01 0.28875654613E+01 0.28509363690E+01 0.28163653343E+01 0.27670791589E+01
 0.27233630207E+01 0.26651125466E+01 0.26079515613E+01 0.25606892583E+01 0.25014687846E+01
 0.24443908320E+01 0.23957822555E+01 0.23597572206E+01 0.23324680065E+01 0.23147815915E+01
 0.25474956805E+01 0.25508210327E+01 0.25638834683E+01 0.25857876494E+01 0.26160159582E+01
 0.26470058498E+01 0.26798848784E+01 0.27150228982E+01 0.27642110968E+01 0.28019218557E+01
 0.28347148251E+01 0.28724234495E+01 0.28983829406E+01 0.29232263523E+01 0.29431363459E+01
 0.29528808006E+01 0.29663057213E+01 0.29725062317E+01 0.29669505770E+01 0.29671249996E+01
 0.29680045919E+01 0.29700121361E+01 0.29680677554E+01 0.29675273948E+01 0.29659093020E+01
 0.29675273949E+01 0.29680677557E+01 0.29700121365E+01 0.29680045924E+01 0.29671250002E+01
 0.29669505777E+01 0.29725062326E+01 0.29663057221E+01 0.29528808015E+01 0.29431363469E+01
 0.29232263532E+01 0.28983829416E+01 0.28724234504E+01 0.28347148260E+01 0.28019218565E+01
 0.27642110976E+01 0.27150228989E+01 0.26798848790E+01 0.26470058503E+01 0.26160159587E+01
 0.25857876497E+01 0.25638834686E+01 0.25508210328E+01 0.27125701695E+01 0.27180546446E+01
 0.27269638061E+01 0.27429427233E+01 0.27603532180E+01 0.27881781619E+01 0.28185053685E+01
 0.28526544493E+01 0.28715118035E+01 0.29008227879E+01 0.29281176262E+01 0.29458842810E+01
 0.29645215340E+01 0.29762720066E+01 0.29853298087E+01 0.29851927077E+01 0.29931326556E+01
 0.29833930952E+01 0.29747385341E+01 0.29725114101E+01 0.29700121361E+01 0.29641684468E+01
 0.29580486077E+01 0.29534023920E+01 0.29519138464E+01 0.29534023922E+01 0.29580486080E+01
 0.29641684472E+01 0.29700121366E+01 0.29725114107E+01 0.29747385348E+01 0.29833930961E+01
 0.29931326565E+01 0.29851927086E+01 0.29853298097E+01 0.29762720075E+01 0.29645215349E+01
 0.29458842819E+01 0.29281176271E+01 0.29008227887E+01 0.28715118043E+01 0.28526544500E+01
 0.28185053691E+01 0.27881781624E+01 0.27603532185E+01 0.27429427237E+01 0.27269638064E+01
 0.27180546448E+01 0.28417156346E+01 0.28432387835E+01 0.28501828855E+01 0.28628195030E+01
 0.28803642766E+01 0.28969892324E+01 0.29128097179E+01 0.29291904425E+01 0.29567564719E+01
 0.29746911579E+01 0.29854385052E+01 0.30034578391E+01 0.30071276284E+01 0.30159907317E+01
 0.30123524184E+01 0.30107892182E+01 0.30083861718E+01 0.29913433841E+01 0.29824573960E+01
 0.29754606161E+01 0.29680677554E+01 0.29580486077E+01 0.29497580228E+01 0.29438395852E+01
 0.29426000676E+01 0.29438395853E+01 0.29497580231E+01 0.29580486081E+01 0.29680677560E+01
 0.29754606167E+01 0.29824573967E+01 0.29913433849E+01 0.30083861727E+01 0.30107892190E+01
 0.30123524194E+01 0.30159907326E+01 0.30071276294E+01 0.30034578400E+01 0.29854385061E+01
 0.29746911588E+01 0.29567564727E+01 0.29291904432E+01 0.29128097185E+01 0.28969892329E+01
 0.28803642771E+01 0.28628195033E+01 0.28501828857E+01 0.28432387836E+01 0.29049481399E+01
 0.29088005731E+01 0.29146447139E+01 0.29244181542E+01 0.29342829131E+01 0.29516016334E+01
 0.29706623400E+01 0.29920769611E+01 0.29985832948E+01 0.30136711125E+01 0.30273442792E+01
 0.30315443463E+01 0.30362854841E+01 0.30367976412E+01 0.30302580288E+01 0.30247083907E+01
 0.30174905991E+01 0.29963408102E+01 0.29863594738E+01 0.29773835442E+01 0.29675273948E+01
 0.29534023920E+01 0.29438395852E+01 0.29375758439E+01 0.29371384523E+01 0.29375758440E+01
 0.29438395854E+01 0.29534023925E+01 0.29675273953E+01 0.29773835448E+01 0.29863594745E+01
 0.29963408110E+01 0.30174906000E+01 0.30247083916E+01 0.30302580298E+01 0.30367976421E+01
 0.30362854851E+01 0.30315443473E+01 0.30273442801E+01 0.30136711133E+01 0.29985832956E+01
 0.29920769619E+01 0.29706623406E+01 0.29516016339E+01 0.29342829136E+01 0.29244181545E+01
 0.29146447141E+01 0.29088005732E+01 0.29365933719E+01 0.29371384523E+01 0.29426000677E+01
 0.29519138464E+01 0.29659093020E+01 0.29775227626E+01 0.29883844989E+01 0.29982894609E+01
 0.30195087548E+01 0.30304728121E+01 0.30347804098E+01 0.30456176424E+01 0.30429505154E+01
 0.30456176424E+01 0.30347804097E+01 0.30304728121E+01 0.30195087547E+01 0.29982894609E+01
 0.29883844988E+01 0.29775227626E+01 0.29659093020E+01 0.29519138464E+01 0.29426000676E+01
 0.29371384523E+01 0.29365933719E+01 0.29371384524E+01 0.29426000679E+01 0.29519138468E+01
 0.29659093025E+01 0.29775227632E+01 0.29883844995E+01 0.29982894617E+01 0.30195087557E+01
 0.30304728130E+01 0.30347804108E+01 0.30456176433E+01 0.30429505164E+01 0.30456176433E+01
 0.30347804107E+01 0.30304728130E+01 0.30195087556E+01 0.29982894616E+01 0.29883844995E+01
 0.29775227632E+01 0.29659093025E+01 0.29519138468E+01 0.29426000679E+01 0.29371384524E+01
 0.29049481400E+01 0.29088005732E+01 0.29146447140E+01 0.29244181543E+01 0.29342829132E+01
 0.29516016334E+01 0.29706623400E+01 0.29920769612E+01 0.29985832949E+01 0.30136711126E+01
 0.30273442793E+01 0.30315443464E+01 0.30362854842E+01 0.30367976413E+01 0.30302580289E+01
 0.30247083908E+01 0.30174905992E+01 0.29963408103E+01 0.29863594739E+01 0.29773835443E+01
 0.29675273949E+01 0.29534023922E+01 0.29438395853E+01 0.29375758440E+01 0.29371384524E+01
 0.29375758442E+01 0.29438395856E+01 0.29534023926E+01 0.29675273955E+01 0.29773835449E+01
 0.29863594746E+01 0.29963408112E+01 0.30174906002E+01 0.30247083917E+01 0.30302580299E+01
 0.30367976422E+01 0.30362854852E+01 0.30315443474E+01 0.30273442802E+01 0.30136711134E+01
 0.29985832957E+01 0.29920769619E+01 0.29706623407E+01 0.29516016340E+01 0.29342829136E+01
 0.29244181546E+01 0.29146447142E+01 0.29088005733E+01 0.28417156347E+01 0.28432387836E+01
 0.28501828856E+01 0.28628195031E+01 0.28803642768E+01 0.28969892325E+01 0.29128097180E+01
 0.29291904426E+01 0.29567564720E+01 0.29746911581E+01 0.29854385054E+01 0.30034578393E+01
 0.30071276286E+01 0.30159907319E+01 0.30123524186E+01 0.30107892184E+01 0.30083861720E+01
 0.29913433843E+01 0.29824573962E+01 0.29754606163E+01 0.29680677557E+01 0.29580486080E+01
 0.29497580231E+01 0.29438395854E+01 0.29426000679E+01 0.29438395856E+01 0.29497580234E+01
 0.29580486084E+01 0.29680677562E+01 0.29754606169E+01 0.29824573969E+01 0.29913433852E+01
 0.30083861730E+01 0.30107892192E+01 0.30123524197E+01 0.30159907328E+01 0.30071276296E+01
 0.30034578402E+01 0.29854385063E+01 0.29746911589E+01 0.29567564728E+01 0.29291904433E+01
 0.29128097186E+01 0.28969892330E+01 0.28803642772E+01 0.28628195034E+01 0.28501828858E+01
 0.28432387838E+01 0.27125701697E+01 0.27180546448E+01 0.27269638063E+01 0.27429427235E+01
 0.27603532182E+01 0.27881781621E+01 0.28185053687E+01 0.28526544495E+01 0.28715118038E+01
 0.29008227881E+01 0.29281176265E+01 0.29458842813E+01 0.29645215342E+01 0.29762720069E+01
 0.29853298090E+01 0.29851927080E+01 0.29931326560E+01 0.29833930956E+01 0.29747385344E+01
 0.29725114104E+01 0.29700121365E+01 0.29641684472E+01 0.29580486081E+01 0.29534023925E+01
 0.29519138468E+01 0.29534023926E+01 0.29580486084E+01 0.29641684476E+01 0.29700121370E+01
 0.29725114110E+01 0.29747385352E+01 0.29833930965E+01 0.29931326568E+01 0.29851927089E+01
 0.29853298100E+01 0.29762720078E+01 0.29645215352E+01 0.29458842822E+01 0.29281176274E+01
 0.29008227890E+01 0.28715118045E+01 0.28526544502E+01 0.28185053693E+01 0.27881781626E+01
 0.27603532187E+01 0.27429427238E+01 0.27269638065E+01 0.27180546449E+01 0.25474956807E+01
 0.25508210329E+01 0.25638834686E+01 0.25857876496E+01 0.26160159585E+01 0.26470058500E+01
 0.26798848787E+01 0.27150228984E+01 0.27642110971E+01 0.28019218560E+01 0.28347148255E+01
 0.28724234499E+01 0.28983829410E+01 0.29232263526E+01 0.29431363463E+01 0.29528808010E+01
 0.29663057217E+01 0.29725062322E+01 0.29669505775E+01 0.29671250001E+01 0.29680045924E+01
 0.29700121366E+01 0.29680677560E+01 0.29675273953E+01 0.29659093025E+01 0.29675273955E+01
 0.29680677562E+01 0.29700121370E+01 0.29680045928E+01 0.29671250007E+01 0.29669505782E+01
 0.29725062331E+01 0.29663057225E+01 0.29528808019E+01 0.29431363473E+01 0.29232263535E+01
 0.28983829419E+01 0.28724234508E+01 0.28347148264E+01 0.28019218568E+01 0.27642110978E+01
 0.27150228991E+01 0.26798848793E+01 0.26470058506E+01 0.26160159589E+01 0.25857876499E+01
 0.25638834688E+01 0.25508210330E+01 0.23079043997E+01 0.23147815917E+01 0.23324680066E+01
 0.23597572206E+01 0.23957822554E+01 0.24443908318E+01 0.25014687843E+01 0.25606892580E+01
 0.26079515609E+01 0.26651125461E+01 0.27233630203E+01 0.27670791584E+01 0.28163653339E+01
 0.28509363686E+01 0.28875654610E+01 0.29111720176E+01 0.29305574626E+01 0.29531802553E+01
 0.29584861833E+01 0.29623130630E+01 0.29671250002E+01 0.29725114107E+01 0.29754606167E+01
 0.29773835448E+01 0.29775227632E+01 0.29773835449E+01 0.29754606169E+01 0.29725114110E+01
 0.29671250007E+01 0.29623130636E+01 0.29584861841E+01 0.29531802560E+01 0.29305574633E+01
 0.29111720186E+01 0.28875654618E+01 0.28509363695E+01 0.28163653348E+01 0.27670791593E+01
 0.27233630211E+01 0.26651125469E+01 0.26079515617E+01 0.25606892586E+01 0.25014687849E+01
 0.24443908323E+01 0.23957822558E+01 0.23597572209E+01 0.23324680068E+01 0.23147815918E+01
 0.20208219437E+01 0.20274250074E+01 0.20525928170E+01 0.20921275773E+01 0.21463915222E+01
 0.22037977720E+01 0.22676653494E+01 0.23374881090E+01 0.24257876797E+01 0.24997881079E+01
 0.25703094387E+01 0.26452284964E+01 0.27057162432E+01 0.27660752946E+01 0.28126814692E+01
 0.28601912938E+01 0.28887486059E+01 0.29200975393E+01 0.29478990691E+01 0.29584861834E+01
 0.29669505777E+01 0.29747385348E+01 0.29824573967E+01 0.29863594745E+01 0.29883844995E+01
 0.29863594746E+01 0.29824573969E+01 0.29747385352E+01 0.29669505782E+01 0.29584861841E+01
 0.29478990698E+01 0.29200975400E+01 0.28887486067E+01 0.28601912947E+01 0.28126814701E+01
 0.27660752955E+01 0.27057162440E+01 0.26452284973E+01 0.25703094395E+01 0.24997881087E+01
 0.24257876804E+01 0.23374881096E+01 0.22676653499E+01 0.22037977725E+01 0.21463915226E+01
 0.20921275776E+01 0.20525928172E+01 0.20274250075E+01 0.16429025114E+01 0.16551068538E+01
 0.16844561258E+01 0.17340300941E+01 0.17991319351E+01 0.18879127951E+01 0.19885542079E+01
 0.20939108772E+01 0.21840831493E+01 0.22917956254E+01 0.23958382502E+01 0.24867309068E+01
 0.25780979201E+01 0.26564501495E+01 0.27284305053E+01 0.27882921075E+01 0.28449129261E+01
 0.28809045913E+01 0.29200975394E+01 0.29531802555E+01 0.29725062326E+01 0.29833930961E+01
 0.29913433849E+01 0.29963408110E+01 0.29982894617E+01 0.29963408112E+01 0.29913433852E+01
 0.29833930965E+01 0.29725062331E+01 0.29531802560E+01 0.29200975400E+01 0.28809045920E+01
 0.28449129269E+01 0.27882921082E+01 0.27284305062E+01 0.26564501504E+01 0.25780979209E+01
 0.24867309077E+01 0.23958382510E+01 0.22917956261E+01 0.21840831500E+01 0.20939108778E+01
 0.19885542084E+01 0.18879127956E+01 0.17991319355E+01 0.17340300944E+01 0.16844561260E+01
 0.16551068539E+01 0.11937391090E+01 0.12079112291E+01 0.12555960000E+01 0.13291566021E+01
 0.14245037158E+01 0.15250546181E+01 0.16366241350E+01 0.17634622838E+01 0.19156718673E+01
 0.20465119009E+01 0.21754677603E+01 0.23067344208E+01 0.24206101288E+01 0.25294597403E+01
 0.26243895432E+01 0.27084533254E+01 0.27799101823E+01 0.28449129262E+01 0.28887486061E+01
 0.29305574628E+01 0.29663057221E+01 0.29931326565E+01 0.30083861727E+01 0.30174906000E+01
 0.30195087557E+01 0.30174906002E+01 0.30083861730E+01 0.29931326568E+01 0.29663057225E+01
 0.29305574633E+01 0.28887486067E+01 0.28449129269E+01 0.27799101830E+01 0.27084533262E+01
 0.26243895440E+01 0.25294597412E+01 0.24206101297E+01 0.23067344216E+01 0.21754677611E+01
 0.20465119016E+01 0.19156718680E+01 0.17634622844E+01 0.16366241355E+01 0.15250546185E+01
 0.14245037161E+01 0.13291566024E+01 0.12555960002E+01 0.12079112292E+01 0.68205911005E+00
 0.69259485347E+00 0.72251021710E+00 0.78605863804E+00 0.89272834803E+00 0.10518207063E+01
 0.12353170314E+01 0.14130734680E+01 0.15688375990E+01 0.17528580044E+01 0.19289459746E+01
 0.20858246735E+01 0.22420488277E+01 0.23780843250E+01 0.25039662153E+01 0.26132549201E+01
 0.27084533254E+01 0.27882921076E+01 0.28601912941E+01 0.29111720180E+01 0.29528808015E+01
 0.29851927086E+01 0.30107892190E+01 0.30247083916E+01 0.30304728130E+01 0.30247083917E+01
 0.30107892192E+01 0.29851927089E+01 0.29528808019E+01 0.29111720186E+01 0.28601912947E+01
 0.27882921082E+01 0.27084533262E+01 0.26132549208E+01 0.25039662160E+01 0.23780843258E+01
 0.22420488285E+01 0.20858246742E+01 0.19289459753E+01 0.17528580050E+01 0.15688375996E+01
 0.14130734686E+01 0.12353170319E+01 0.10518207067E+01 0.89272834839E+00 0.78605863831E+00