 running on    1 total cores
 running on    1 total cores
 running on    1 total cores
 distrk:  each k-point on    1 cores,    1 groups
 distr:  one band on    1 cores,    1 groups
 distrk:  each k-point on    1 cores,    1 groups
 distr:  one band on    1 cores,    1 groups
 distrk:  each k-point on    1 cores,    1 groups
 distr:  one band on    1 cores,    1 groups
 running on    1 total cores
 distrk:  each k-point on    1 cores,    1 groups
 distr:  one band on    1 cores,    1 groups
 vasp.6.2.1 16May21 (build Dec 20 2021 17:02:34) complex                         
 vasp.6.2.1 16May21 (build Dec 20 2021 17:02:34) complex                         
 vasp.6.2.1 16May21 (build Dec 20 2021 17:02:34) complex                         
 vasp.6.2.1 16May21 (build Dec 20 2021 17:02:34) complex                         
 POSCAR found type information on POSCAR Na
 POSCAR found type information on POSCAR Na
 POSCAR found :  1 types and       2 ions
 POSCAR found :  1 types and       2 ions
 POSCAR found type information on POSCAR Na
 POSCAR found type information on POSCAR Na
 POSCAR found :  1 types and       2 ions
 POSCAR found :  1 types and       2 ions
 scaLAPACK will be used
 scaLAPACK will be used
 scaLAPACK will be used
 scaLAPACK will be used
 -----------------------------------------------------------------------------
|                                                                             |
|               ----> ADVICE to this user running VASP <----                  |
|                                                                             |
|     You enforced a specific xc type in the INCAR file but a different       |
|     type was found in the POTCAR file.                                      |
|     I HOPE YOU KNOW WHAT YOU ARE DOING!                                     |
|                                                                             |
 -----------------------------------------------------------------------------

 -----------------------------------------------------------------------------
|                                                                             |
|               ----> ADVICE to this user running VASP <----                  |
|                                                                             |
|     You enforced a specific xc type in the INCAR file but a different       |
|     type was found in the POTCAR file.                                      |
|     I HOPE YOU KNOW WHAT YOU ARE DOING!                                     |
|                                                                             |
 -----------------------------------------------------------------------------

 -----------------------------------------------------------------------------
|                                                                             |
|               ----> ADVICE to this user running VASP <----                  |
|                                                                             |
|     You enforced a specific xc type in the INCAR file but a different       |
|     type was found in the POTCAR file.                                      |
|     I HOPE YOU KNOW WHAT YOU ARE DOING!                                     |
|                                                                             |
 -----------------------------------------------------------------------------

 -----------------------------------------------------------------------------
|                                                                             |
|               ----> ADVICE to this user running VASP <----                  |
|                                                                             |
|     You enforced a specific xc type in the INCAR file but a different       |
|     type was found in the POTCAR file.                                      |
|     I HOPE YOU KNOW WHAT YOU ARE DOING!                                     |
|                                                                             |
 -----------------------------------------------------------------------------

 LDA part: xc-table for Pade appr. of Perdew
 LDA part: xc-table for Pade appr. of Perdew
 LDA part: xc-table for Pade appr. of Perdew
 LDA part: xc-table for Pade appr. of Perdew
 POSCAR, INCAR and KPOINTS ok, starting setup
 FFT: planning ...
 WAVECAR not read
 entering main loop
 POSCAR, INCAR and KPOINTS ok, starting setup
 FFT: planning ...
 WAVECAR not read
 entering main loop
       N       E                     dE             d eps       ncg     rms          rms(c)
DAV:   1    -0.259230285651E+01   -0.25923E+01   -0.46578E+02    40   0.101E+02
DAV:   2    -0.272629499059E+01   -0.13399E+00   -0.13399E+00    60   0.402E+00
DAV:   3    -0.272654861329E+01   -0.25362E-03   -0.25362E-03    60   0.196E-01
 POSCAR, INCAR and KPOINTS ok, starting setup
 FFT: planning ...
DAV:   4    -0.272654900052E+01   -0.38723E-06   -0.38724E-06    45   0.629E-03
DAV:   5    -0.272654900296E+01   -0.24346E-08   -0.24221E-08    35   0.511E-04    0.265E-01
 WAVECAR not read
 entering main loop
DAV:   6    -0.272656164444E+01   -0.12641E-04   -0.36838E-04    40   0.990E-02
 POSCAR, INCAR and KPOINTS ok, starting setup
 FFT: planning ...
 WAVECAR not read
 entering main loop
       N       E                     dE             d eps       ncg     rms          rms(c)
DAV:   1    -0.259230285651E+01   -0.25923E+01   -0.46578E+02    40   0.101E+02
DAV:   2    -0.272629499059E+01   -0.13399E+00   -0.13399E+00    60   0.402E+00
DAV:   3    -0.272654861329E+01   -0.25362E-03   -0.25362E-03    60   0.196E-01
   1 F= -.27265616E+01 E0= -.27277072E+01  d E =-.272656E+01
 BRION: g(F)=  0.561E-56 g(S)=  0.000E+00
 reached required accuracy - stopping structural energy minimisation
DAV:   4    -0.272654900052E+01   -0.38723E-06   -0.38724E-06    45   0.629E-03
DAV:   5    -0.272654900296E+01   -0.24346E-08   -0.24221E-08    35   0.511E-04    0.265E-01
DAV:   6    -0.272656164444E+01   -0.12641E-04   -0.36838E-04    40   0.990E-02
       N       E                     dE             d eps       ncg     rms          rms(c)
DAV:   1    -0.259230285651E+01   -0.25923E+01   -0.46578E+02    40   0.101E+02
DAV:   2    -0.272629499059E+01   -0.13399E+00   -0.13399E+00    60   0.402E+00
DAV:   3    -0.272654861329E+01   -0.25362E-03   -0.25362E-03    60   0.196E-01
       N       E                     dE             d eps       ncg     rms          rms(c)
   1 F= -.27265616E+01 E0= -.27277072E+01  d E =-.272656E+01
 BRION: g(F)=  0.561E-56 g(S)=  0.000E+00
 reached required accuracy - stopping structural energy minimisation
DAV:   4    -0.272654900052E+01   -0.38723E-06   -0.38724E-06    45   0.629E-03
DAV:   1    -0.259230285651E+01   -0.25923E+01   -0.46578E+02    40   0.101E+02
DAV:   5    -0.272654900296E+01   -0.24346E-08   -0.24221E-08    35   0.511E-04    0.265E-01
DAV:   2    -0.272629499059E+01   -0.13399E+00   -0.13399E+00    60   0.402E+00
DAV:   6    -0.272656164444E+01   -0.12641E-04   -0.36838E-04    40   0.990E-02
DAV:   3    -0.272654861329E+01   -0.25362E-03   -0.25362E-03    60   0.196E-01
DAV:   4    -0.272654900052E+01   -0.38723E-06   -0.38724E-06    45   0.629E-03
DAV:   5    -0.272654900296E+01   -0.24346E-08   -0.24221E-08    35   0.511E-04    0.265E-01
   1 F= -.27265616E+01 E0= -.27277072E+01  d E =-.272656E+01
 BRION: g(F)=  0.561E-56 g(S)=  0.000E+00
 reached required accuracy - stopping structural energy minimisation
DAV:   6    -0.272656164444E+01   -0.12641E-04   -0.36838E-04    40   0.990E-02
   1 F= -.27265616E+01 E0= -.27277072E+01  d E =-.272656E+01
 BRION: g(F)=  0.561E-56 g(S)=  0.000E+00
 reached required accuracy - stopping structural energy minimisation
 writing wavefunctions
 writing wavefunctions
 writing wavefunctions
 writing wavefunctions
Note: The following floating-point exceptions are signalling: IEEE_UNDERFLOW_FLAG IEEE_DENORMAL
Note: The following floating-point exceptions are signalling: IEEE_UNDERFLOW_FLAG IEEE_DENORMAL
Note: The following floating-point exceptions are signalling: IEEE_UNDERFLOW_FLAG IEEE_DENORMAL
Note: The following floating-point exceptions are signalling: IEEE_UNDERFLOW_FLAG IEEE_DENORMAL
 running on    1 total cores
 running on    1 total cores
 running on    1 total cores
 distrk:  each k-point on    1 cores,    1 groups
 distrk:  each k-point on    1 cores,    1 groups
 distrk:  each k-point on    1 cores,    1 groups
 distr:  one band on    1 cores,    1 groups
 distr:  one band on    1 cores,    1 groups
 distr:  one band on    1 cores,    1 groups
 running on    1 total cores
 distrk:  each k-point on    1 cores,    1 groups
 distr:  one band on    1 cores,    1 groups
 vasp.6.2.1 16May21 (build Dec 20 2021 17:02:34) complex                         
 vasp.6.2.1 16May21 (build Dec 20 2021 17:02:34) complex                         
 POSCAR found type information on POSCAR Na
 POSCAR found :  1 types and       2 ions
 scaLAPACK will be used
 -----------------------------------------------------------------------------
|                                                                             |
|               ----> ADVICE to this user running VASP <----                  |
|                                                                             |
|     You enforced a specific xc type in the INCAR file but a different       |
|     type was found in the POTCAR file.                                      |
|     I HOPE YOU KNOW WHAT YOU ARE DOING!                                     |
|                                                                             |
 -----------------------------------------------------------------------------

 vasp.6.2.1 16May21 (build Dec 20 2021 17:02:34) complex                         
 POSCAR found type information on POSCAR Na
 POSCAR found :  1 types and       2 ions
 scaLAPACK will be used
 LDA part: xc-table for Pade appr. of Perdew
 vasp.6.2.1 16May21 (build Dec 20 2021 17:02:34) complex                         
 -----------------------------------------------------------------------------
|                                                                             |
|               ----> ADVICE to this user running VASP <----                  |
|                                                                             |
|     You enforced a specific xc type in the INCAR file but a different       |
|     type was found in the POTCAR file.                                      |
|     I HOPE YOU KNOW WHAT YOU ARE DOING!                                     |
|                                                                             |
 -----------------------------------------------------------------------------

 LDA part: xc-table for Pade appr. of Perdew
 POSCAR found type information on POSCAR Na
 POSCAR found :  1 types and       2 ions
 scaLAPACK will be used
 -----------------------------------------------------------------------------
|                                                                             |
|               ----> ADVICE to this user running VASP <----                  |
|                                                                             |
|     You enforced a specific xc type in the INCAR file but a different       |
|     type was found in the POTCAR file.                                      |
|     I HOPE YOU KNOW WHAT YOU ARE DOING!                                     |
|                                                                             |
 -----------------------------------------------------------------------------

 POSCAR found type information on POSCAR Na
 found WAVECAR, reading the header
  number of k-points has changed, file:     4 present:    10
  trying to continue reading WAVECAR, but it might fail
 POSCAR found :  1 types and       2 ions
 scaLAPACK will be used
 -----------------------------------------------------------------------------
|                                                                             |
|               ----> ADVICE to this user running VASP <----                  |
|                                                                             |
|     You enforced a specific xc type in the INCAR file but a different       |
|     type was found in the POTCAR file.                                      |
|     I HOPE YOU KNOW WHAT YOU ARE DOING!                                     |
|                                                                             |
 -----------------------------------------------------------------------------

 LDA part: xc-table for Pade appr. of Perdew
 LDA part: xc-table for Pade appr. of Perdew
 found WAVECAR, reading the header
  number of k-points has changed, file:     4 present:    10
  trying to continue reading WAVECAR, but it might fail
 found WAVECAR, reading the header
  number of k-points has changed, file:     4 present:    10
  trying to continue reading WAVECAR, but it might fail
 found WAVECAR, reading the header
  number of k-points has changed, file:     4 present:    10
  trying to continue reading WAVECAR, but it might fail
 POSCAR, INCAR and KPOINTS ok, starting setup
 FFT: planning ...
 reading WAVECAR
 the WAVECAR file was read successfully
 initial charge from wavefunction
 entering main loop
       N       E                     dE             d eps       ncg     rms          rms(c)
 POSCAR, INCAR and KPOINTS ok, starting setup
 FFT: planning ...
 reading WAVECAR
 the WAVECAR file was read successfully
 initial charge from wavefunction
 entering main loop
       N       E                     dE             d eps       ncg     rms          rms(c)
DAV:   1    -0.255671570943E+01   -0.25567E+01   -0.28220E-01   125   0.197E+00    0.197E-02
DAV:   2    -0.255689701616E+01   -0.18131E-03   -0.17998E-03   110   0.124E-01    0.127E-02
DAV:   3    -0.255690110617E+01   -0.40900E-05   -0.22775E-06    90   0.722E-03
   1 F= -.25569011E+01 E0= -.25582699E+01  d E =-.255690E+01
 BRION: g(F)=  0.237E-56 g(S)=  0.000E+00
 reached required accuracy - stopping structural energy minimisation
DAV:   1    -0.255671570943E+01   -0.25567E+01   -0.28220E-01   125   0.197E+00    0.197E-02
DAV:   2    -0.255689701616E+01   -0.18131E-03   -0.17998E-03   110   0.124E-01    0.127E-02
DAV:   3    -0.255690110617E+01   -0.40900E-05   -0.22775E-06    90   0.722E-03
   1 F= -.25569011E+01 E0= -.25582699E+01  d E =-.255690E+01
 BRION: g(F)=  0.237E-56 g(S)=  0.000E+00
 reached required accuracy - stopping structural energy minimisation
 POSCAR, INCAR and KPOINTS ok, starting setup
 FFT: planning ...
 reading WAVECAR
 the WAVECAR file was read successfully
 initial charge from wavefunction
 entering main loop
       N       E                     dE             d eps       ncg     rms          rms(c)
 POSCAR, INCAR and KPOINTS ok, starting setup
 FFT: planning ...
 reading WAVECAR
 the WAVECAR file was read successfully
 initial charge from wavefunction
 entering main loop
       N       E                     dE             d eps       ncg     rms          rms(c)
DAV:   1    -0.255671570943E+01   -0.25567E+01   -0.28220E-01   125   0.197E+00    0.197E-02
DAV:   2    -0.255689701616E+01   -0.18131E-03   -0.17998E-03   110   0.124E-01    0.127E-02
DAV:   3    -0.255690110617E+01   -0.40900E-05   -0.22775E-06    90   0.722E-03
   1 F= -.25569011E+01 E0= -.25582699E+01  d E =-.255690E+01
 BRION: g(F)=  0.237E-56 g(S)=  0.000E+00
 reached required accuracy - stopping structural energy minimisation
DAV:   1    -0.255671570943E+01   -0.25567E+01   -0.28220E-01   125   0.197E+00    0.197E-02
DAV:   2    -0.255689701616E+01   -0.18131E-03   -0.17998E-03   110   0.124E-01    0.127E-02
DAV:   3    -0.255690110617E+01   -0.40900E-05   -0.22775E-06    90   0.722E-03
   1 F= -.25569011E+01 E0= -.25582699E+01  d E =-.255690E+01
 BRION: g(F)=  0.237E-56 g(S)=  0.000E+00
 reached required accuracy - stopping structural energy minimisation
 writing wavefunctions
 writing wavefunctions
 writing wavefunctions
 writing wavefunctions
Note: The following floating-point exceptions are signalling: IEEE_UNDERFLOW_FLAG IEEE_DENORMAL
Note: The following floating-point exceptions are signalling: IEEE_UNDERFLOW_FLAG IEEE_DENORMAL
Note: The following floating-point exceptions are signalling: IEEE_UNDERFLOW_FLAG IEEE_DENORMAL
Note: The following floating-point exceptions are signalling: IEEE_UNDERFLOW_FLAG IEEE_DENORMAL
 running on    1 total cores
 distrk:  each k-point on    1 cores,    1 groups
 distr:  one band on    1 cores,    1 groups
 running on    1 total cores
 distrk:  each k-point on    1 cores,    1 groups
 distr:  one band on    1 cores,    1 groups
 running on    1 total cores
 running on    1 total cores
 distrk:  each k-point on    1 cores,    1 groups
 distr:  one band on    1 cores,    1 groups
 distrk:  each k-point on    1 cores,    1 groups
 distr:  one band on    1 cores,    1 groups
 vasp.6.2.1 16May21 (build Dec 20 2021 17:02:34) complex                         
 vasp.6.2.1 16May21 (build Dec 20 2021 17:02:34) complex                         
 POSCAR found type information on POSCAR Na
 POSCAR found :  1 types and       2 ions
 scaLAPACK will be used
 -----------------------------------------------------------------------------
|                                                                             |
|               ----> ADVICE to this user running VASP <----                  |
|                                                                             |
|     You enforced a specific xc type in the INCAR file but a different       |
|     type was found in the POTCAR file.                                      |
|     I HOPE YOU KNOW WHAT YOU ARE DOING!                                     |
|                                                                             |
 -----------------------------------------------------------------------------

 vasp.6.2.1 16May21 (build Dec 20 2021 17:02:34) complex                         
 POSCAR found type information on POSCAR Na
 POSCAR found :  1 types and       2 ions
 scaLAPACK will be used
 LDA part: xc-table for Pade appr. of Perdew
 -----------------------------------------------------------------------------
|                                                                             |
|               ----> ADVICE to this user running VASP <----                  |
|                                                                             |
|     You enforced a specific xc type in the INCAR file but a different       |
|     type was found in the POTCAR file.                                      |
|     I HOPE YOU KNOW WHAT YOU ARE DOING!                                     |
|                                                                             |
 -----------------------------------------------------------------------------

 LDA part: xc-table for Pade appr. of Perdew
 vasp.6.2.1 16May21 (build Dec 20 2021 17:02:34) complex                         
 POSCAR found type information on POSCAR Na
 POSCAR found :  1 types and       2 ions
 scaLAPACK will be used
 -----------------------------------------------------------------------------
|                                                                             |
|               ----> ADVICE to this user running VASP <----                  |
|                                                                             |
|     You enforced a specific xc type in the INCAR file but a different       |
|     type was found in the POTCAR file.                                      |
|     I HOPE YOU KNOW WHAT YOU ARE DOING!                                     |
|                                                                             |
 -----------------------------------------------------------------------------

 POSCAR found type information on POSCAR Na
 POSCAR found :  1 types and       2 ions
 scaLAPACK will be used
 -----------------------------------------------------------------------------
|                                                                             |
|               ----> ADVICE to this user running VASP <----                  |
|                                                                             |
|     You enforced a specific xc type in the INCAR file but a different       |
|     type was found in the POTCAR file.                                      |
|     I HOPE YOU KNOW WHAT YOU ARE DOING!                                     |
|                                                                             |
 -----------------------------------------------------------------------------

 LDA part: xc-table for Pade appr. of Perdew
 LDA part: xc-table for Pade appr. of Perdew
 found WAVECAR, reading the header
  number of k-points has changed, file:    10 present:    20
  trying to continue reading WAVECAR, but it might fail
 found WAVECAR, reading the header
  number of k-points has changed, file:    10 present:    20
  trying to continue reading WAVECAR, but it might fail
 found WAVECAR, reading the header
  number of k-points has changed, file:    10 present:    20
  trying to continue reading WAVECAR, but it might fail
 found WAVECAR, reading the header
  number of k-points has changed, file:    10 present:    20
  trying to continue reading WAVECAR, but it might fail
 POSCAR, INCAR and KPOINTS ok, starting setup
 FFT: planning ...
 reading WAVECAR
 the WAVECAR file was read successfully
 initial charge from wavefunction
 entering main loop
       N       E                     dE             d eps       ncg     rms          rms(c)
 POSCAR, INCAR and KPOINTS ok, starting setup
 FFT: planning ...
 reading WAVECAR
 the WAVECAR file was read successfully
 initial charge from wavefunction
 entering main loop
       N       E                     dE             d eps       ncg     rms          rms(c)
DAV:   1    -0.177339385696E+01   -0.17734E+01   -0.17296E-01   260   0.977E-01BRMIX: very serious problems
 the old and the new charge density differ
 old charge density:     0.71325 new    2.00000
    0.148E+00
DAV:   2    -0.258993742144E+01   -0.81654E+00   -0.15200E-01   240   0.170E+00    0.196E-01
DAV:   3    -0.258449116775E+01    0.54463E-02   -0.33366E-04   225   0.108E-01    0.137E-01
DAV:   4    -0.258045808705E+01    0.40331E-02   -0.71039E-04   215   0.171E-01    0.128E-02
DAV:   5    -0.258040220533E+01    0.55882E-04   -0.35721E-06   100   0.118E-02
 POSCAR, INCAR and KPOINTS ok, starting setup
 FFT: planning ...
   1 F= -.25804022E+01 E0= -.25808267E+01  d E =-.258040E+01
 BRION: g(F)=  0.140E-54 g(S)=  0.000E+00
 reached required accuracy - stopping structural energy minimisation
 reading WAVECAR
 the WAVECAR file was read successfully
 initial charge from wavefunction
 entering main loop
DAV:   1    -0.177339385696E+01   -0.17734E+01   -0.17296E-01   260   0.977E-01BRMIX: very serious problems
 the old and the new charge density differ
 old charge density:     0.71325 new    2.00000
    0.148E+00
       N       E                     dE             d eps       ncg     rms          rms(c)
DAV:   2    -0.258993742144E+01   -0.81654E+00   -0.15200E-01   240   0.170E+00    0.196E-01
DAV:   3    -0.258449116775E+01    0.54463E-02   -0.33366E-04   225   0.108E-01    0.137E-01
DAV:   4    -0.258045808705E+01    0.40331E-02   -0.71039E-04   215   0.171E-01    0.128E-02
DAV:   5    -0.258040220533E+01    0.55882E-04   -0.35721E-06   100   0.118E-02
 POSCAR, INCAR and KPOINTS ok, starting setup
 FFT: planning ...
 reading WAVECAR
 the WAVECAR file was read successfully
 initial charge from wavefunction
   1 F= -.25804022E+01 E0= -.25808267E+01  d E =-.258040E+01
 BRION: g(F)=  0.140E-54 g(S)=  0.000E+00
 reached required accuracy - stopping structural energy minimisation
 entering main loop
       N       E                     dE             d eps       ncg     rms          rms(c)
DAV:   1    -0.177339385696E+01   -0.17734E+01   -0.17296E-01   260   0.977E-01BRMIX: very serious problems
 the old and the new charge density differ
 old charge density:     0.71325 new    2.00000
    0.148E+00
DAV:   2    -0.258993742144E+01   -0.81654E+00   -0.15200E-01   240   0.170E+00    0.196E-01
DAV:   3    -0.258449116775E+01    0.54463E-02   -0.33366E-04   225   0.108E-01    0.137E-01
DAV:   4    -0.258045808705E+01    0.40331E-02   -0.71039E-04   215   0.171E-01    0.128E-02
DAV:   5    -0.258040220533E+01    0.55882E-04   -0.35721E-06   100   0.118E-02
   1 F= -.25804022E+01 E0= -.25808267E+01  d E =-.258040E+01
 BRION: g(F)=  0.140E-54 g(S)=  0.000E+00
 reached required accuracy - stopping structural energy minimisation
DAV:   1    -0.177339385696E+01   -0.17734E+01   -0.17296E-01   260   0.977E-01BRMIX: very serious problems
 the old and the new charge density differ
 old charge density:     0.71325 new    2.00000
    0.148E+00
DAV:   2    -0.258993742144E+01   -0.81654E+00   -0.15200E-01   240   0.170E+00    0.196E-01
DAV:   3    -0.258449116775E+01    0.54463E-02   -0.33366E-04   225   0.108E-01    0.137E-01
DAV:   4    -0.258045808705E+01    0.40331E-02   -0.71039E-04   215   0.171E-01    0.128E-02
DAV:   5    -0.258040220533E+01    0.55882E-04   -0.35721E-06   100   0.118E-02
   1 F= -.25804022E+01 E0= -.25808267E+01  d E =-.258040E+01
 BRION: g(F)=  0.140E-54 g(S)=  0.000E+00
 reached required accuracy - stopping structural energy minimisation
 writing wavefunctions
 writing wavefunctions
 writing wavefunctions
 writing wavefunctions
Note: The following floating-point exceptions are signalling: IEEE_UNDERFLOW_FLAG IEEE_DENORMAL
Note: The following floating-point exceptions are signalling: IEEE_UNDERFLOW_FLAG IEEE_DENORMAL
Note: The following floating-point exceptions are signalling: IEEE_UNDERFLOW_FLAG IEEE_DENORMAL
Note: The following floating-point exceptions are signalling: IEEE_UNDERFLOW_FLAG IEEE_DENORMAL
 running on    1 total cores
 distrk:  each k-point on    1 cores,    1 groups
 distr:  one band on    1 cores,    1 groups
 running on    1 total cores
 distrk:  each k-point on    1 cores,    1 groups
 distr:  one band on    1 cores,    1 groups
 running on    1 total cores
 distrk:  each k-point on    1 cores,    1 groups
 running on    1 total cores
 distr:  one band on    1 cores,    1 groups
 distrk:  each k-point on    1 cores,    1 groups
 distr:  one band on    1 cores,    1 groups
 vasp.6.2.1 16May21 (build Dec 20 2021 17:02:34) complex                         
 vasp.6.2.1 16May21 (build Dec 20 2021 17:02:34) complex                         
 POSCAR found type information on POSCAR Na
 POSCAR found :  1 types and       2 ions
 scaLAPACK will be used
 vasp.6.2.1 16May21 (build Dec 20 2021 17:02:34) complex                         
 -----------------------------------------------------------------------------
|                                                                             |
|               ----> ADVICE to this user running VASP <----                  |
|                                                                             |
|     You enforced a specific xc type in the INCAR file but a different       |
|     type was found in the POTCAR file.                                      |
|     I HOPE YOU KNOW WHAT YOU ARE DOING!                                     |
|                                                                             |
 -----------------------------------------------------------------------------

 POSCAR found type information on POSCAR Na
 POSCAR found :  1 types and       2 ions
 scaLAPACK will be used
 LDA part: xc-table for Pade appr. of Perdew
 vasp.6.2.1 16May21 (build Dec 20 2021 17:02:34) complex                         
 -----------------------------------------------------------------------------
|                                                                             |
|               ----> ADVICE to this user running VASP <----                  |
|                                                                             |
|     You enforced a specific xc type in the INCAR file but a different       |
|     type was found in the POTCAR file.                                      |
|     I HOPE YOU KNOW WHAT YOU ARE DOING!                                     |
|                                                                             |
 -----------------------------------------------------------------------------

 LDA part: xc-table for Pade appr. of Perdew
 POSCAR found type information on POSCAR Na
 POSCAR found :  1 types and       2 ions
 scaLAPACK will be used
 -----------------------------------------------------------------------------
|                                                                             |
|               ----> ADVICE to this user running VASP <----                  |
|                                                                             |
|     You enforced a specific xc type in the INCAR file but a different       |
|     type was found in the POTCAR file.                                      |
|     I HOPE YOU KNOW WHAT YOU ARE DOING!                                     |
|                                                                             |
 -----------------------------------------------------------------------------

 POSCAR found type information on POSCAR Na
 POSCAR found :  1 types and       2 ions
 scaLAPACK will be used
 LDA part: xc-table for Pade appr. of Perdew
 -----------------------------------------------------------------------------
|                                                                             |
|               ----> ADVICE to this user running VASP <----                  |
|                                                                             |
|     You enforced a specific xc type in the INCAR file but a different       |
|     type was found in the POTCAR file.                                      |
|     I HOPE YOU KNOW WHAT YOU ARE DOING!                                     |
|                                                                             |
 -----------------------------------------------------------------------------

 LDA part: xc-table for Pade appr. of Perdew
 found WAVECAR, reading the header
  number of k-points has changed, file:    20 present:    35
  trying to continue reading WAVECAR, but it might fail
 found WAVECAR, reading the header
  number of k-points has changed, file:    20 present:    35
  trying to continue reading WAVECAR, but it might fail
 found WAVECAR, reading the header
  number of k-points has changed, file:    20 present:    35
  trying to continue reading WAVECAR, but it might fail
 found WAVECAR, reading the header
  number of k-points has changed, file:    20 present:    35
  trying to continue reading WAVECAR, but it might fail
 POSCAR, INCAR and KPOINTS ok, starting setup
 FFT: planning ...
 reading WAVECAR
 the WAVECAR file was read successfully
 initial charge from wavefunction
 entering main loop
       N       E                     dE             d eps       ncg     rms          rms(c)
 POSCAR, INCAR and KPOINTS ok, starting setup
 FFT: planning ...
 reading WAVECAR
 the WAVECAR file was read successfully
 initial charge from wavefunction
 entering main loop
       N       E                     dE             d eps       ncg     rms          rms(c)
DAV:   1    -0.197042874035E+01   -0.19704E+01   -0.19937E-01   455   0.101E+00BRMIX: very serious problems
 the old and the new charge density differ
 old charge density:     0.84166 new    2.00000
    0.133E+00
DAV:   2    -0.260333747315E+01   -0.63291E+00   -0.10031E-01   410   0.138E+00    0.176E-01
DAV:   3    -0.259735596457E+01    0.59815E-02   -0.46282E-04   410   0.130E-01    0.980E-02
 POSCAR, INCAR and KPOINTS ok, starting setup
 FFT: planning ...
 reading WAVECAR
 the WAVECAR file was read successfully
 initial charge from wavefunction
DAV:   4    -0.259556663124E+01    0.17893E-02   -0.32566E-04   370   0.116E-01 entering main loop
    0.115E-02
DAV:   1    -0.197042874035E+01   -0.19704E+01   -0.19937E-01   455   0.101E+00BRMIX: very serious problems
 the old and the new charge density differ
 old charge density:     0.84166 new    2.00000
    0.133E+00
DAV:   5    -0.259551945069E+01    0.47181E-04   -0.32838E-06   185   0.111E-02
DAV:   2    -0.260333747315E+01   -0.63291E+00   -0.10031E-01   410   0.138E+00    0.176E-01
DAV:   3    -0.259735596457E+01    0.59815E-02   -0.46282E-04   410   0.130E-01 POSCAR, INCAR and KPOINTS ok, starting setup
    0.980E-02
 FFT: planning ...
 reading WAVECAR
 the WAVECAR file was read successfully
 initial charge from wavefunction
 entering main loop
DAV:   4    -0.259556663124E+01    0.17893E-02   -0.32566E-04   370   0.116E-01    0.115E-02
DAV:   5    -0.259551945069E+01    0.47181E-04   -0.32838E-06   185   0.111E-02
       N       E                     dE             d eps       ncg     rms          rms(c)
   1 F= -.25955195E+01 E0= -.25965047E+01  d E =-.259552E+01
 BRION: g(F)=  0.142E-54 g(S)=  0.000E+00
 reached required accuracy - stopping structural energy minimisation
   1 F= -.25955195E+01 E0= -.25965047E+01  d E =-.259552E+01
 BRION: g(F)=  0.142E-54 g(S)=  0.000E+00
 reached required accuracy - stopping structural energy minimisation
       N       E                     dE             d eps       ncg     rms          rms(c)
DAV:   1    -0.197042874035E+01   -0.19704E+01   -0.19937E-01   455   0.101E+00BRMIX: very serious problems
 the old and the new charge density differ
 old charge density:     0.84166 new    2.00000
    0.133E+00
DAV:   2    -0.260333747315E+01   -0.63291E+00   -0.10031E-01   410   0.138E+00    0.176E-01
DAV:   3    -0.259735596457E+01    0.59815E-02   -0.46282E-04   410   0.130E-01    0.980E-02
DAV:   4    -0.259556663124E+01    0.17893E-02   -0.32566E-04   370   0.116E-01    0.115E-02
DAV:   5    -0.259551945069E+01    0.47181E-04   -0.32838E-06   185   0.111E-02
   1 F= -.25955195E+01 E0= -.25965047E+01  d E =-.259552E+01
 BRION: g(F)=  0.142E-54 g(S)=  0.000E+00
 reached required accuracy - stopping structural energy minimisation
DAV:   1    -0.197042874035E+01   -0.19704E+01   -0.19937E-01   455   0.101E+00BRMIX: very serious problems
 the old and the new charge density differ
 old charge density:     0.84166 new    2.00000
    0.133E+00
DAV:   2    -0.260333747315E+01   -0.63291E+00   -0.10031E-01   410   0.138E+00    0.176E-01
DAV:   3    -0.259735596457E+01    0.59815E-02   -0.46282E-04   410   0.130E-01    0.980E-02
DAV:   4    -0.259556663124E+01    0.17893E-02   -0.32566E-04   370   0.116E-01    0.115E-02
DAV:   5    -0.259551945069E+01    0.47181E-04   -0.32838E-06   185   0.111E-02
   1 F= -.25955195E+01 E0= -.25965047E+01  d E =-.259552E+01
 BRION: g(F)=  0.142E-54 g(S)=  0.000E+00
 reached required accuracy - stopping structural energy minimisation
 writing wavefunctions
 writing wavefunctions
 writing wavefunctions
 writing wavefunctions
Note: The following floating-point exceptions are signalling: IEEE_UNDERFLOW_FLAG IEEE_DENORMAL
Note: The following floating-point exceptions are signalling: IEEE_UNDERFLOW_FLAG IEEE_DENORMAL
Note: The following floating-point exceptions are signalling: IEEE_UNDERFLOW_FLAG IEEE_DENORMAL
Note: The following floating-point exceptions are signalling: IEEE_UNDERFLOW_FLAG IEEE_DENORMAL
 running on    1 total cores
 running on    1 total cores
 running on    1 total cores
 distrk:  each k-point on    1 cores,    1 groups
 distrk:  each k-point on    1 cores,    1 groups
 distrk:  each k-point on    1 cores,    1 groups
 distr:  one band on    1 cores,    1 groups
 distr:  one band on    1 cores,    1 groups
 distr:  one band on    1 cores,    1 groups
 running on    1 total cores
 distrk:  each k-point on    1 cores,    1 groups
 distr:  one band on    1 cores,    1 groups
 vasp.6.2.1 16May21 (build Dec 20 2021 17:02:34) complex                         
 vasp.6.2.1 16May21 (build Dec 20 2021 17:02:34) complex                         
 vasp.6.2.1 16May21 (build Dec 20 2021 17:02:34) complex                         
 POSCAR found type information on POSCAR Na
 POSCAR found :  1 types and       2 ions
 scaLAPACK will be used
 vasp.6.2.1 16May21 (build Dec 20 2021 17:02:34) complex                         
 POSCAR found type information on POSCAR Na
 POSCAR found :  1 types and       2 ions
 scaLAPACK will be used
 -----------------------------------------------------------------------------
|                                                                             |
|               ----> ADVICE to this user running VASP <----                  |
|                                                                             |
|     You enforced a specific xc type in the INCAR file but a different       |
|     type was found in the POTCAR file.                                      |
|     I HOPE YOU KNOW WHAT YOU ARE DOING!                                     |
|                                                                             |
 -----------------------------------------------------------------------------

 POSCAR found type information on POSCAR Na
 POSCAR found :  1 types and       2 ions
 scaLAPACK will be used
 LDA part: xc-table for Pade appr. of Perdew
 -----------------------------------------------------------------------------
|                                                                             |
|               ----> ADVICE to this user running VASP <----                  |
|                                                                             |
|     You enforced a specific xc type in the INCAR file but a different       |
|     type was found in the POTCAR file.                                      |
|     I HOPE YOU KNOW WHAT YOU ARE DOING!                                     |
|                                                                             |
 -----------------------------------------------------------------------------

 -----------------------------------------------------------------------------
|                                                                             |
|               ----> ADVICE to this user running VASP <----                  |
|                                                                             |
|     You enforced a specific xc type in the INCAR file but a different       |
|     type was found in the POTCAR file.                                      |
|     I HOPE YOU KNOW WHAT YOU ARE DOING!                                     |
|                                                                             |
 -----------------------------------------------------------------------------

 POSCAR found type information on POSCAR Na
 POSCAR found :  1 types and       2 ions
 scaLAPACK will be used
 -----------------------------------------------------------------------------
|                                                                             |
|               ----> ADVICE to this user running VASP <----                  |
|                                                                             |
|     You enforced a specific xc type in the INCAR file but a different       |
|     type was found in the POTCAR file.                                      |
|     I HOPE YOU KNOW WHAT YOU ARE DOING!                                     |
|                                                                             |
 -----------------------------------------------------------------------------

 LDA part: xc-table for Pade appr. of Perdew
 LDA part: xc-table for Pade appr. of Perdew
 LDA part: xc-table for Pade appr. of Perdew
 found WAVECAR, reading the header
  number of k-points has changed, file:    35 present:    56
  trying to continue reading WAVECAR, but it might fail
 found WAVECAR, reading the header
  number of k-points has changed, file:    35 present:    56
  trying to continue reading WAVECAR, but it might fail
 found WAVECAR, reading the header
  number of k-points has changed, file:    35 present:    56
  trying to continue reading WAVECAR, but it might fail
 found WAVECAR, reading the header
  number of k-points has changed, file:    35 present:    56
  trying to continue reading WAVECAR, but it might fail
 POSCAR, INCAR and KPOINTS ok, starting setup
 FFT: planning ...
 reading WAVECAR
 the WAVECAR file was read successfully
 initial charge from wavefunction
 entering main loop
       N       E                     dE             d eps       ncg     rms          rms(c)
 POSCAR, INCAR and KPOINTS ok, starting setup
 FFT: planning ...
 reading WAVECAR
 the WAVECAR file was read successfully
 initial charge from wavefunction
 entering main loop
       N       E                     dE             d eps       ncg     rms          rms(c)
DAV:   1    -0.214840016266E+01   -0.21484E+01   -0.24077E-01   705   0.109E+00BRMIX: very serious problems
 the old and the new charge density differ
 old charge density:     0.99606 new    2.00000
    0.115E+00
 POSCAR, INCAR and KPOINTS ok, starting setup
 FFT: planning ...
 reading WAVECAR
 the WAVECAR file was read successfully
 initial charge from wavefunction
 entering main loop
DAV:   2    -0.259981198631E+01   -0.45141E+00   -0.60550E-02   670   0.108E+00    0.151E-01
       N       E                     dE             d eps       ncg     rms          rms(c)
DAV:   1    -0.214840016266E+01   -0.21484E+01   -0.24077E-01   705   0.109E+00BRMIX: very serious problems
 the old and the new charge density differ
 old charge density:     0.99606 new    2.00000
    0.115E+00
DAV:   3    -0.259430967280E+01    0.55023E-02   -0.55482E-04   665   0.146E-01 POSCAR, INCAR and KPOINTS ok, starting setup
 FFT: planning ...
    0.563E-02
 reading WAVECAR
 the WAVECAR file was read successfully
 initial charge from wavefunction
 entering main loop
DAV:   2    -0.259981198631E+01   -0.45141E+00   -0.60550E-02   670   0.108E+00    0.151E-01
DAV:   3    -0.259430967280E+01    0.55023E-02   -0.55482E-04   665   0.146E-01DAV:   4    -0.259390508224E+01    0.40459E-03   -0.86901E-05   580   0.598E-02    0.993E-03
    0.563E-02
DAV:   5    -0.259386694483E+01    0.38137E-04   -0.33720E-06   315   0.107E-02
DAV:   4    -0.259390508224E+01    0.40459E-03   -0.86901E-05   580   0.598E-02    0.993E-03
DAV:   1    -0.214840016266E+01   -0.21484E+01   -0.24077E-01   705   0.109E+00BRMIX: very serious problems
 the old and the new charge density differ
 old charge density:     0.99606 new    2.00000
    0.115E+00
DAV:   5    -0.259386694483E+01    0.38137E-04   -0.33720E-06   315   0.107E-02
DAV:   2    -0.259981198631E+01   -0.45141E+00   -0.60550E-02   670   0.108E+00    0.151E-01
       N       E                     dE             d eps       ncg     rms          rms(c)
   1 F= -.25938669E+01 E0= -.25947158E+01  d E =-.259387E+01
 BRION: g(F)=  0.172E-54 g(S)=  0.000E+00
 reached required accuracy - stopping structural energy minimisation
   1 F= -.25938669E+01 E0= -.25947158E+01  d E =-.259387E+01
 BRION: g(F)=  0.172E-54 g(S)=  0.000E+00
 reached required accuracy - stopping structural energy minimisation
DAV:   3    -0.259430967280E+01    0.55023E-02   -0.55482E-04   665   0.146E-01    0.563E-02
DAV:   4    -0.259390508224E+01    0.40459E-03   -0.86901E-05   580   0.598E-02    0.993E-03
DAV:   5    -0.259386694483E+01    0.38137E-04   -0.33720E-06   315   0.107E-02
   1 F= -.25938669E+01 E0= -.25947158E+01  d E =-.259387E+01
 BRION: g(F)=  0.172E-54 g(S)=  0.000E+00
 reached required accuracy - stopping structural energy minimisation
DAV:   1    -0.214840016266E+01   -0.21484E+01   -0.24077E-01   705   0.109E+00BRMIX: very serious problems
 the old and the new charge density differ
 old charge density:     0.99606 new    2.00000
    0.115E+00
DAV:   2    -0.259981198631E+01   -0.45141E+00   -0.60550E-02   670   0.108E+00    0.151E-01
DAV:   3    -0.259430967280E+01    0.55023E-02   -0.55482E-04   665   0.146E-01    0.563E-02
DAV:   4    -0.259390508224E+01    0.40459E-03   -0.86901E-05   580   0.598E-02    0.993E-03
DAV:   5    -0.259386694483E+01    0.38137E-04   -0.33720E-06   315   0.107E-02
   1 F= -.25938669E+01 E0= -.25947158E+01  d E =-.259387E+01
 BRION: g(F)=  0.172E-54 g(S)=  0.000E+00
 reached required accuracy - stopping structural energy minimisation
 writing wavefunctions
 writing wavefunctions
 writing wavefunctions
 writing wavefunctions
Note: The following floating-point exceptions are signalling: IEEE_UNDERFLOW_FLAG IEEE_DENORMAL
Note: The following floating-point exceptions are signalling: IEEE_UNDERFLOW_FLAG IEEE_DENORMAL
Note: The following floating-point exceptions are signalling: IEEE_UNDERFLOW_FLAG IEEE_DENORMAL
Note: The following floating-point exceptions are signalling: IEEE_UNDERFLOW_FLAG IEEE_DENORMAL
 running on    1 total cores
 distrk:  each k-point on    1 cores,    1 groups
 distr:  one band on    1 cores,    1 groups
 running on    1 total cores
 distrk:  each k-point on    1 cores,    1 groups
 distr:  one band on    1 cores,    1 groups
 running on    1 total cores
 distrk:  each k-point on    1 cores,    1 groups
 distr:  one band on    1 cores,    1 groups
 running on    1 total cores
 distrk:  each k-point on    1 cores,    1 groups
 distr:  one band on    1 cores,    1 groups
 vasp.6.2.1 16May21 (build Dec 20 2021 17:02:34) complex                         
 vasp.6.2.1 16May21 (build Dec 20 2021 17:02:34) complex                         
 POSCAR found type information on POSCAR Na
 POSCAR found :  1 types and       2 ions
 scaLAPACK will be used
 vasp.6.2.1 16May21 (build Dec 20 2021 17:02:34) complex                         
 -----------------------------------------------------------------------------
|                                                                             |
|               ----> ADVICE to this user running VASP <----                  |
|                                                                             |
|     You enforced a specific xc type in the INCAR file but a different       |
|     type was found in the POTCAR file.                                      |
|     I HOPE YOU KNOW WHAT YOU ARE DOING!                                     |
|                                                                             |
 -----------------------------------------------------------------------------

 POSCAR found type information on POSCAR Na
 POSCAR found :  1 types and       2 ions
 scaLAPACK will be used
 LDA part: xc-table for Pade appr. of Perdew
 -----------------------------------------------------------------------------
|                                                                             |
|               ----> ADVICE to this user running VASP <----                  |
|                                                                             |
|     You enforced a specific xc type in the INCAR file but a different       |
|     type was found in the POTCAR file.                                      |
|     I HOPE YOU KNOW WHAT YOU ARE DOING!                                     |
|                                                                             |
 -----------------------------------------------------------------------------

 vasp.6.2.1 16May21 (build Dec 20 2021 17:02:34) complex                         
 LDA part: xc-table for Pade appr. of Perdew
 POSCAR found type information on POSCAR Na
 POSCAR found :  1 types and       2 ions
 scaLAPACK will be used
 -----------------------------------------------------------------------------
|                                                                             |
|               ----> ADVICE to this user running VASP <----                  |
|                                                                             |
|     You enforced a specific xc type in the INCAR file but a different       |
|     type was found in the POTCAR file.                                      |
|     I HOPE YOU KNOW WHAT YOU ARE DOING!                                     |
|                                                                             |
 -----------------------------------------------------------------------------

 POSCAR found type information on POSCAR Na
 POSCAR found :  1 types and       2 ions
 scaLAPACK will be used
 LDA part: xc-table for Pade appr. of Perdew
 -----------------------------------------------------------------------------
|                                                                             |
|               ----> ADVICE to this user running VASP <----                  |
|                                                                             |
|     You enforced a specific xc type in the INCAR file but a different       |
|     type was found in the POTCAR file.                                      |
|     I HOPE YOU KNOW WHAT YOU ARE DOING!                                     |
|                                                                             |
 -----------------------------------------------------------------------------

 LDA part: xc-table for Pade appr. of Perdew
 found WAVECAR, reading the header
  number of k-points has changed, file:    56 present:    84
  trying to continue reading WAVECAR, but it might fail
 found WAVECAR, reading the header
  number of k-points has changed, file:    56 present:    84
  trying to continue reading WAVECAR, but it might fail
 found WAVECAR, reading the header
  number of k-points has changed, file:    56 present:    84
  trying to continue reading WAVECAR, but it might fail
 found WAVECAR, reading the header
  number of k-points has changed, file:    56 present:    84
  trying to continue reading WAVECAR, but it might fail
 POSCAR, INCAR and KPOINTS ok, starting setup
 FFT: planning ...
 reading WAVECAR
 the WAVECAR file was read successfully
 initial charge from wavefunction
 entering main loop
       N       E                     dE             d eps       ncg     rms          rms(c)
DAV:   1    -0.225890205070E+01   -0.22589E+01   -0.20913E-01  1040   0.105E+00BRMIX: very serious problems
 the old and the new charge density differ
 old charge density:     1.12010 new    2.00000
    0.101E+00
DAV:   2    -0.259357507177E+01   -0.33467E+00   -0.41197E-02   990   0.898E-01    0.133E-01
 POSCAR, INCAR and KPOINTS ok, starting setup
 FFT: planning ...
 reading WAVECAR
 the WAVECAR file was read successfully
 initial charge from wavefunction
 entering main loop
DAV:   3    -0.258905463129E+01    0.45204E-02   -0.61261E-04  1005   0.154E-01    0.308E-02
DAV:   4    -0.258902109763E+01    0.33534E-04   -0.14107E-05   605   0.238E-02
 POSCAR, INCAR and KPOINTS ok, starting setup
       N       E                     dE             d eps       ncg     rms          rms(c)
 FFT: planning ...
 reading WAVECAR
 the WAVECAR file was read successfully
 initial charge from wavefunction
 entering main loop
 POSCAR, INCAR and KPOINTS ok, starting setup
 FFT: planning ...
   1 F= -.25890211E+01 E0= -.25887175E+01  d E =-.258902E+01
 BRION: g(F)=  0.797E-54 g(S)=  0.000E+00
 reached required accuracy - stopping structural energy minimisation
 reading WAVECAR
 the WAVECAR file was read successfully
 initial charge from wavefunction
 entering main loop
DAV:   1    -0.225890205070E+01   -0.22589E+01   -0.20913E-01  1040   0.105E+00BRMIX: very serious problems
 the old and the new charge density differ
 old charge density:     1.12010 new    2.00000
    0.101E+00
       N       E                     dE             d eps       ncg     rms          rms(c)
       N       E                     dE             d eps       ncg     rms          rms(c)
DAV:   2    -0.259357507177E+01   -0.33467E+00   -0.41197E-02   990   0.898E-01    0.133E-01
DAV:   3    -0.258905463129E+01    0.45204E-02   -0.61261E-04  1005   0.154E-01    0.308E-02
DAV:   4    -0.258902109763E+01    0.33534E-04   -0.14107E-05   605   0.238E-02
   1 F= -.25890211E+01 E0= -.25887175E+01  d E =-.258902E+01
 BRION: g(F)=  0.797E-54 g(S)=  0.000E+00
 reached required accuracy - stopping structural energy minimisation
DAV:   1    -0.225890205070E+01   -0.22589E+01   -0.20913E-01  1040   0.105E+00BRMIX: very serious problems
 the old and the new charge density differ
 old charge density:     1.12010 new    2.00000
    0.101E+00
DAV:   2    -0.259357507177E+01   -0.33467E+00   -0.41197E-02   990   0.898E-01    0.133E-01
DAV:   1    -0.225890205070E+01   -0.22589E+01   -0.20913E-01  1040   0.105E+00BRMIX: very serious problems
 the old and the new charge density differ
 old charge density:     1.12010 new    2.00000
    0.101E+00
 writing wavefunctions
DAV:   3    -0.258905463129E+01    0.45204E-02   -0.61261E-04  1005   0.154E-01    0.308E-02
DAV:   2    -0.259357507177E+01   -0.33467E+00   -0.41197E-02   990   0.898E-01    0.133E-01
DAV:   4    -0.258902109763E+01    0.33534E-04   -0.14107E-05   605   0.238E-02
   1 F= -.25890211E+01 E0= -.25887175E+01  d E =-.258902E+01
 BRION: g(F)=  0.797E-54 g(S)=  0.000E+00
 reached required accuracy - stopping structural energy minimisation
DAV:   3    -0.258905463129E+01    0.45204E-02   -0.61261E-04  1005   0.154E-01    0.308E-02
DAV:   4    -0.258902109763E+01    0.33534E-04   -0.14107E-05   605   0.238E-02
   1 F= -.25890211E+01 E0= -.25887175E+01  d E =-.258902E+01
 BRION: g(F)=  0.797E-54 g(S)=  0.000E+00
 reached required accuracy - stopping structural energy minimisation
 writing wavefunctions
 writing wavefunctions
 writing wavefunctions
Note: The following floating-point exceptions are signalling: IEEE_UNDERFLOW_FLAG IEEE_DENORMAL
Note: The following floating-point exceptions are signalling: IEEE_UNDERFLOW_FLAG IEEE_DENORMAL
Note: The following floating-point exceptions are signalling: IEEE_UNDERFLOW_FLAG IEEE_DENORMAL
Note: The following floating-point exceptions are signalling: IEEE_UNDERFLOW_FLAG IEEE_DENORMAL
 running on    1 total cores
 running on    1 total cores
 distrk:  each k-point on    1 cores,    1 groups
 distrk:  each k-point on    1 cores,    1 groups
 distr:  one band on    1 cores,    1 groups
 distr:  one band on    1 cores,    1 groups
 running on    1 total cores
 distrk:  each k-point on    1 cores,    1 groups
 distr:  one band on    1 cores,    1 groups
 running on    1 total cores
 distrk:  each k-point on    1 cores,    1 groups
 distr:  one band on    1 cores,    1 groups
 vasp.6.2.1 16May21 (build Dec 20 2021 17:02:34) complex                         
 vasp.6.2.1 16May21 (build Dec 20 2021 17:02:34) complex                         
 POSCAR found type information on POSCAR Na
 POSCAR found :  1 types and       2 ions
 scaLAPACK will be used
 -----------------------------------------------------------------------------
|                                                                             |
|               ----> ADVICE to this user running VASP <----                  |
|                                                                             |
|     You enforced a specific xc type in the INCAR file but a different       |
|     type was found in the POTCAR file.                                      |
|     I HOPE YOU KNOW WHAT YOU ARE DOING!                                     |
|                                                                             |
 -----------------------------------------------------------------------------

 vasp.6.2.1 16May21 (build Dec 20 2021 17:02:34) complex                         
 POSCAR found type information on POSCAR Na
 POSCAR found :  1 types and       2 ions
 scaLAPACK will be used
 LDA part: xc-table for Pade appr. of Perdew
 -----------------------------------------------------------------------------
|                                                                             |
|               ----> ADVICE to this user running VASP <----                  |
|                                                                             |
|     You enforced a specific xc type in the INCAR file but a different       |
|     type was found in the POTCAR file.                                      |
|     I HOPE YOU KNOW WHAT YOU ARE DOING!                                     |
|                                                                             |
 -----------------------------------------------------------------------------

 vasp.6.2.1 16May21 (build Dec 20 2021 17:02:34) complex                         
 LDA part: xc-table for Pade appr. of Perdew
 POSCAR found type information on POSCAR Na
 POSCAR found :  1 types and       2 ions
 scaLAPACK will be used
 -----------------------------------------------------------------------------
|                                                                             |
|               ----> ADVICE to this user running VASP <----                  |
|                                                                             |
|     You enforced a specific xc type in the INCAR file but a different       |
|     type was found in the POTCAR file.                                      |
|     I HOPE YOU KNOW WHAT YOU ARE DOING!                                     |
|                                                                             |
 -----------------------------------------------------------------------------

 POSCAR found type information on POSCAR Na
 POSCAR found :  1 types and       2 ions
 scaLAPACK will be used
 -----------------------------------------------------------------------------
|                                                                             |
|               ----> ADVICE to this user running VASP <----                  |
|                                                                             |
|     You enforced a specific xc type in the INCAR file but a different       |
|     type was found in the POTCAR file.                                      |
|     I HOPE YOU KNOW WHAT YOU ARE DOING!                                     |
|                                                                             |
 -----------------------------------------------------------------------------

 LDA part: xc-table for Pade appr. of Perdew
 LDA part: xc-table for Pade appr. of Perdew
 found WAVECAR, reading the header
  number of k-points has changed, file:    84 present:     4
  trying to continue reading WAVECAR, but it might fail
 WAVECAR: different cutoff or change in lattice found
 found WAVECAR, reading the header
  number of k-points has changed, file:    84 present:     4
  trying to continue reading WAVECAR, but it might fail
 WAVECAR: different cutoff or change in lattice found
 found WAVECAR, reading the header
  number of k-points has changed, file:    84 present:     4
  trying to continue reading WAVECAR, but it might fail
 WAVECAR: different cutoff or change in lattice found
 found WAVECAR, reading the header
  number of k-points has changed, file:    84 present:     4
  trying to continue reading WAVECAR, but it might fail
 WAVECAR: different cutoff or change in lattice found
 POSCAR, INCAR and KPOINTS ok, starting setup
 FFT: planning ...
 reading WAVECAR
 the WAVECAR file was read successfully
 initial charge from wavefunction
 entering main loop
       N       E                     dE             d eps       ncg     rms          rms(c)
 POSCAR, INCAR and KPOINTS ok, starting setup
 FFT: planning ...
 reading WAVECAR
 the WAVECAR file was read successfully
 initial charge from wavefunction
 entering main loop
       N       E                     dE             d eps       ncg     rms          rms(c)
DAV:   1    -0.272700564723E+01   -0.27270E+01   -0.29487E-01    40   0.206E+00    0.488E-02
DAV:   2    -0.272731422547E+01   -0.30858E-03   -0.33905E-03    45   0.320E-01    0.331E-02
DAV:   3    -0.272728585079E+01    0.28375E-04   -0.74743E-05    40   0.415E-02
   1 F= -.27272859E+01 E0= -.27284314E+01  d E =-.272729E+01
 BRION: g(F)=  0.120E-56 g(S)=  0.000E+00
 reached required accuracy - stopping structural energy minimisation
 POSCAR, INCAR and KPOINTS ok, starting setup
 FFT: planning ...
 reading WAVECAR
 the WAVECAR file was read successfully
 initial charge from wavefunction
 entering main loop
DAV:   1    -0.272700564723E+01   -0.27270E+01   -0.29487E-01    40   0.206E+00    0.488E-02
DAV:   2    -0.272731422547E+01   -0.30858E-03   -0.33905E-03    45   0.320E-01    0.331E-02
DAV:   3    -0.272728585079E+01    0.28375E-04   -0.74743E-05    40   0.415E-02
 POSCAR, INCAR and KPOINTS ok, starting setup
 FFT: planning ...
 reading WAVECAR
 the WAVECAR file was read successfully
 initial charge from wavefunction
 entering main loop
   1 F= -.27272859E+01 E0= -.27284314E+01  d E =-.272729E+01
 BRION: g(F)=  0.120E-56 g(S)=  0.000E+00
 reached required accuracy - stopping structural energy minimisation
       N       E                     dE             d eps       ncg     rms          rms(c)
       N       E                     dE             d eps       ncg     rms          rms(c)
DAV:   1    -0.272700564723E+01   -0.27270E+01   -0.29487E-01    40   0.206E+00    0.488E-02
DAV:   2    -0.272731422547E+01   -0.30858E-03   -0.33905E-03    45   0.320E-01    0.331E-02
DAV:   3    -0.272728585079E+01    0.28375E-04   -0.74743E-05    40   0.415E-02
   1 F= -.27272859E+01 E0= -.27284314E+01  d E =-.272729E+01
 BRION: g(F)=  0.120E-56 g(S)=  0.000E+00
 reached required accuracy - stopping structural energy minimisation
 writing wavefunctions
DAV:   1    -0.272700564723E+01   -0.27270E+01   -0.29487E-01    40   0.206E+00    0.488E-02
DAV:   2    -0.272731422547E+01   -0.30858E-03   -0.33905E-03    45   0.320E-01    0.331E-02
DAV:   3    -0.272728585079E+01    0.28375E-04   -0.74743E-05    40   0.415E-02
   1 F= -.27272859E+01 E0= -.27284314E+01  d E =-.272729E+01
 BRION: g(F)=  0.120E-56 g(S)=  0.000E+00
 reached required accuracy - stopping structural energy minimisation
 writing wavefunctions
 writing wavefunctions
 writing wavefunctions
Note: The following floating-point exceptions are signalling: IEEE_UNDERFLOW_FLAG IEEE_DENORMAL
Note: The following floating-point exceptions are signalling: IEEE_UNDERFLOW_FLAG IEEE_DENORMAL
Note: The following floating-point exceptions are signalling: IEEE_UNDERFLOW_FLAG IEEE_DENORMAL
Note: The following floating-point exceptions are signalling: IEEE_UNDERFLOW_FLAG IEEE_DENORMAL
 running on    1 total cores
 distrk:  each k-point on    1 cores,    1 groups
 distr:  one band on    1 cores,    1 groups
 running on    1 total cores
 distrk:  each k-point on    1 cores,    1 groups
 distr:  one band on    1 cores,    1 groups
 running on    1 total cores
 running on    1 total cores
 distrk:  each k-point on    1 cores,    1 groups
 distrk:  each k-point on    1 cores,    1 groups
 distr:  one band on    1 cores,    1 groups
 distr:  one band on    1 cores,    1 groups
 vasp.6.2.1 16May21 (build Dec 20 2021 17:02:34) complex                         
 vasp.6.2.1 16May21 (build Dec 20 2021 17:02:34) complex                         
 POSCAR found type information on POSCAR Na
 POSCAR found :  1 types and       2 ions
 scaLAPACK will be used
 -----------------------------------------------------------------------------
|                                                                             |
|               ----> ADVICE to this user running VASP <----                  |
|                                                                             |
|     You enforced a specific xc type in the INCAR file but a different       |
|     type was found in the POTCAR file.                                      |
|     I HOPE YOU KNOW WHAT YOU ARE DOING!                                     |
|                                                                             |
 -----------------------------------------------------------------------------

 vasp.6.2.1 16May21 (build Dec 20 2021 17:02:34) complex                         
 POSCAR found type information on POSCAR Na
 POSCAR found :  1 types and       2 ions
 scaLAPACK will be used
 LDA part: xc-table for Pade appr. of Perdew
 -----------------------------------------------------------------------------
|                                                                             |
|               ----> ADVICE to this user running VASP <----                  |
|                                                                             |
|     You enforced a specific xc type in the INCAR file but a different       |
|     type was found in the POTCAR file.                                      |
|     I HOPE YOU KNOW WHAT YOU ARE DOING!                                     |
|                                                                             |
 -----------------------------------------------------------------------------

 LDA part: xc-table for Pade appr. of Perdew
 vasp.6.2.1 16May21 (build Dec 20 2021 17:02:34) complex                         
 POSCAR found type information on POSCAR Na
 POSCAR found :  1 types and       2 ions
 scaLAPACK will be used
 -----------------------------------------------------------------------------
|                                                                             |
|               ----> ADVICE to this user running VASP <----                  |
|                                                                             |
|     You enforced a specific xc type in the INCAR file but a different       |
|     type was found in the POTCAR file.                                      |
|     I HOPE YOU KNOW WHAT YOU ARE DOING!                                     |
|                                                                             |
 -----------------------------------------------------------------------------

 POSCAR found type information on POSCAR Na
 POSCAR found :  1 types and       2 ions
 scaLAPACK will be used
 -----------------------------------------------------------------------------
|                                                                             |
|               ----> ADVICE to this user running VASP <----                  |
|                                                                             |
|     You enforced a specific xc type in the INCAR file but a different       |
|     type was found in the POTCAR file.                                      |
|     I HOPE YOU KNOW WHAT YOU ARE DOING!                                     |
|                                                                             |
 -----------------------------------------------------------------------------

 LDA part: xc-table for Pade appr. of Perdew
 LDA part: xc-table for Pade appr. of Perdew
 found WAVECAR, reading the header
  number of k-points has changed, file:     4 present:    10
  trying to continue reading WAVECAR, but it might fail
 found WAVECAR, reading the header
  number of k-points has changed, file:     4 present:    10
  trying to continue reading WAVECAR, but it might fail
 found WAVECAR, reading the header
  number of k-points has changed, file:     4 present:    10
  trying to continue reading WAVECAR, but it might fail
 found WAVECAR, reading the header
  number of k-points has changed, file:     4 present:    10
  trying to continue reading WAVECAR, but it might fail
 POSCAR, INCAR and KPOINTS ok, starting setup
 FFT: planning ...
 reading WAVECAR
 the WAVECAR file was read successfully
 initial charge from wavefunction
 entering main loop
 POSCAR, INCAR and KPOINTS ok, starting setup
       N       E                     dE             d eps       ncg     rms          rms(c)
 FFT: planning ...
 reading WAVECAR
 the WAVECAR file was read successfully
 initial charge from wavefunction
 entering main loop
       N       E                     dE             d eps       ncg     rms          rms(c)
DAV:   1    -0.255749427345E+01   -0.25575E+01   -0.30134E-01   110   0.222E+00    0.221E-02
DAV:   2    -0.255782826874E+01   -0.33400E-03   -0.32865E-03   115   0.237E-01    0.152E-02
DAV:   3    -0.255783914705E+01   -0.10878E-04   -0.22306E-05    95   0.243E-02
   1 F= -.25578391E+01 E0= -.25592034E+01  d E =-.255784E+01
 BRION: g(F)=  0.173E-54 g(S)=  0.000E+00
 reached required accuracy - stopping structural energy minimisation
 POSCAR, INCAR and KPOINTS ok, starting setup
 FFT: planning ...
 reading WAVECAR
 the WAVECAR file was read successfully
 initial charge from wavefunction
DAV:   1    -0.255749427345E+01   -0.25575E+01   -0.30134E-01   110   0.222E+00    0.221E-02
 entering main loop
DAV:   2    -0.255782826874E+01   -0.33400E-03   -0.32865E-03   115   0.237E-01    0.152E-02
DAV:   3    -0.255783914705E+01   -0.10878E-04   -0.22306E-05    95   0.243E-02
 POSCAR, INCAR and KPOINTS ok, starting setup
 FFT: planning ...
 reading WAVECAR
 the WAVECAR file was read successfully
 initial charge from wavefunction
 entering main loop
       N       E                     dE             d eps       ncg     rms          rms(c)
   1 F= -.25578391E+01 E0= -.25592034E+01  d E =-.255784E+01
 BRION: g(F)=  0.173E-54 g(S)=  0.000E+00
 reached required accuracy - stopping structural energy minimisation
       N       E                     dE             d eps       ncg     rms          rms(c)
DAV:   1    -0.255749427345E+01   -0.25575E+01   -0.30134E-01   110   0.222E+00    0.221E-02
DAV:   2    -0.255782826874E+01   -0.33400E-03   -0.32865E-03   115   0.237E-01    0.152E-02
DAV:   3    -0.255783914705E+01   -0.10878E-04   -0.22306E-05    95   0.243E-02
   1 F= -.25578391E+01 E0= -.25592034E+01  d E =-.255784E+01
 BRION: g(F)=  0.173E-54 g(S)=  0.000E+00
 reached required accuracy - stopping structural energy minimisation
 writing wavefunctions
DAV:   1    -0.255749427345E+01   -0.25575E+01   -0.30134E-01   110   0.222E+00    0.221E-02
DAV:   2    -0.255782826874E+01   -0.33400E-03   -0.32865E-03   115   0.237E-01    0.152E-02
DAV:   3    -0.255783914705E+01   -0.10878E-04   -0.22306E-05    95   0.243E-02
   1 F= -.25578391E+01 E0= -.25592034E+01  d E =-.255784E+01
 BRION: g(F)=  0.173E-54 g(S)=  0.000E+00
 reached required accuracy - stopping structural energy minimisation
 writing wavefunctions
 writing wavefunctions
 writing wavefunctions
Note: The following floating-point exceptions are signalling: IEEE_UNDERFLOW_FLAG IEEE_DENORMAL
Note: The following floating-point exceptions are signalling: IEEE_UNDERFLOW_FLAG IEEE_DENORMAL
Note: The following floating-point exceptions are signalling: IEEE_UNDERFLOW_FLAG IEEE_DENORMAL
Note: The following floating-point exceptions are signalling: IEEE_UNDERFLOW_FLAG IEEE_DENORMAL
 running on    1 total cores
 distrk:  each k-point on    1 cores,    1 groups
 distr:  one band on    1 cores,    1 groups
 running on    1 total cores
 running on    1 total cores
 running on    1 total cores
 distrk:  each k-point on    1 cores,    1 groups
 distrk:  each k-point on    1 cores,    1 groups
 distrk:  each k-point on    1 cores,    1 groups
 distr:  one band on    1 cores,    1 groups
 distr:  one band on    1 cores,    1 groups
 distr:  one band on    1 cores,    1 groups
 vasp.6.2.1 16May21 (build Dec 20 2021 17:02:34) complex                         
 vasp.6.2.1 16May21 (build Dec 20 2021 17:02:34) complex                         
 POSCAR found type information on POSCAR Na
 POSCAR found :  1 types and       2 ions
 scaLAPACK will be used
 -----------------------------------------------------------------------------
|                                                                             |
|               ----> ADVICE to this user running VASP <----                  |
|                                                                             |
|     You enforced a specific xc type in the INCAR file but a different       |
|     type was found in the POTCAR file.                                      |
|     I HOPE YOU KNOW WHAT YOU ARE DOING!                                     |
|                                                                             |
 -----------------------------------------------------------------------------

 vasp.6.2.1 16May21 (build Dec 20 2021 17:02:34) complex                         
 POSCAR found type information on POSCAR Na
 POSCAR found :  1 types and       2 ions
 scaLAPACK will be used
 LDA part: xc-table for Pade appr. of Perdew
 -----------------------------------------------------------------------------
|                                                                             |
|               ----> ADVICE to this user running VASP <----                  |
|                                                                             |
|     You enforced a specific xc type in the INCAR file but a different       |
|     type was found in the POTCAR file.                                      |
|     I HOPE YOU KNOW WHAT YOU ARE DOING!                                     |
|                                                                             |
 -----------------------------------------------------------------------------

 LDA part: xc-table for Pade appr. of Perdew
 vasp.6.2.1 16May21 (build Dec 20 2021 17:02:34) complex                         
 POSCAR found type information on POSCAR Na
 POSCAR found :  1 types and       2 ions
 scaLAPACK will be used
 -----------------------------------------------------------------------------
|                                                                             |
|               ----> ADVICE to this user running VASP <----                  |
|                                                                             |
|     You enforced a specific xc type in the INCAR file but a different       |
|     type was found in the POTCAR file.                                      |
|     I HOPE YOU KNOW WHAT YOU ARE DOING!                                     |
|                                                                             |
 -----------------------------------------------------------------------------

 POSCAR found type information on POSCAR Na
 POSCAR found :  1 types and       2 ions
 found WAVECAR, reading the header
  number of k-points has changed, file:    10 present:    20
  trying to continue reading WAVECAR, but it might fail
 scaLAPACK will be used
 -----------------------------------------------------------------------------
|                                                                             |
|               ----> ADVICE to this user running VASP <----                  |
|                                                                             |
|     You enforced a specific xc type in the INCAR file but a different       |
|     type was found in the POTCAR file.                                      |
|     I HOPE YOU KNOW WHAT YOU ARE DOING!                                     |
|                                                                             |
 -----------------------------------------------------------------------------

 LDA part: xc-table for Pade appr. of Perdew
 LDA part: xc-table for Pade appr. of Perdew
 found WAVECAR, reading the header
  number of k-points has changed, file:    10 present:    20
  trying to continue reading WAVECAR, but it might fail
 found WAVECAR, reading the header
  number of k-points has changed, file:    10 present:    20
  trying to continue reading WAVECAR, but it might fail
 found WAVECAR, reading the header
  number of k-points has changed, file:    10 present:    20
  trying to continue reading WAVECAR, but it might fail
 POSCAR, INCAR and KPOINTS ok, starting setup
 FFT: planning ...
 reading WAVECAR
 the WAVECAR file was read successfully
 initial charge from wavefunction
 entering main loop
       N       E                     dE             d eps       ncg     rms          rms(c)
 POSCAR, INCAR and KPOINTS ok, starting setup
 FFT: planning ...
 reading WAVECAR
 the WAVECAR file was read successfully
 initial charge from wavefunction
 entering main loop
       N       E                     dE             d eps       ncg     rms          rms(c)
DAV:   1    -0.177454393760E+01   -0.17745E+01   -0.17637E-01   255   0.104E+00BRMIX: very serious problems
 the old and the new charge density differ
 old charge density:     0.71324 new    2.00000
    0.148E+00
DAV:   2    -0.259067445624E+01   -0.81613E+00   -0.15971E-01   220   0.194E+00    0.197E-01
DAV:   3    -0.258553296937E+01    0.51415E-02   -0.57917E-04   240   0.163E-01    0.141E-01
DAV:   4    -0.258143583506E+01    0.40971E-02   -0.10168E-03   205   0.227E-01    0.129E-02
DAV:   5    -0.258137205316E+01    0.63782E-04   -0.10512E-05   120   0.193E-02
 POSCAR, INCAR and KPOINTS ok, starting setup
 FFT: planning ...
 reading WAVECAR
 the WAVECAR file was read successfully
 initial charge from wavefunction
 entering main loop
DAV:   1    -0.177454393760E+01   -0.17745E+01   -0.17637E-01   255   0.104E+00BRMIX: very serious problems
 the old and the new charge density differ
 old charge density:     0.71324 new    2.00000
    0.148E+00
DAV:   2    -0.259067445624E+01   -0.81613E+00   -0.15971E-01   220   0.194E+00   1 F= -.25813721E+01 E0= -.25818010E+01  d E =-.258137E+01
 BRION: g(F)=  0.126E-56 g(S)=  0.000E+00
 reached required accuracy - stopping structural energy minimisation
    0.197E-01
 POSCAR, INCAR and KPOINTS ok, starting setup
       N       E                     dE             d eps       ncg     rms          rms(c)
 FFT: planning ...
 reading WAVECAR
 the WAVECAR file was read successfully
 initial charge from wavefunction
 entering main loop
DAV:   3    -0.258553296937E+01    0.51415E-02   -0.57917E-04   240   0.163E-01    0.141E-01
DAV:   4    -0.258143583506E+01    0.40971E-02   -0.10168E-03   205   0.227E-01    0.129E-02
       N       E                     dE             d eps       ncg     rms          rms(c)
DAV:   5    -0.258137205316E+01    0.63782E-04   -0.10512E-05   120   0.193E-02
DAV:   1    -0.177454393760E+01   -0.17745E+01   -0.17637E-01   255   0.104E+00BRMIX: very serious problems
 the old and the new charge density differ
 old charge density:     0.71324 new    2.00000
    0.148E+00
DAV:   2    -0.259067445624E+01   -0.81613E+00   -0.15971E-01   220   0.194E+00    0.197E-01
   1 F= -.25813721E+01 E0= -.25818010E+01  d E =-.258137E+01
 BRION: g(F)=  0.126E-56 g(S)=  0.000E+00
 reached required accuracy - stopping structural energy minimisation
DAV:   3    -0.258553296937E+01    0.51415E-02   -0.57917E-04   240   0.163E-01    0.141E-01
DAV:   4    -0.258143583506E+01    0.40971E-02   -0.10168E-03   205   0.227E-01    0.129E-02
DAV:   5    -0.258137205316E+01    0.63782E-04   -0.10512E-05   120   0.193E-02
   1 F= -.25813721E+01 E0= -.25818010E+01  d E =-.258137E+01
 BRION: g(F)=  0.126E-56 g(S)=  0.000E+00
 reached required accuracy - stopping structural energy minimisation
DAV:   1    -0.177454393760E+01   -0.17745E+01   -0.17637E-01   255   0.104E+00BRMIX: very serious problems
 the old and the new charge density differ
 old charge density:     0.71324 new    2.00000
    0.148E+00
DAV:   2    -0.259067445624E+01   -0.81613E+00   -0.15971E-01   220   0.194E+00    0.197E-01
DAV:   3    -0.258553296937E+01    0.51415E-02   -0.57917E-04   240   0.163E-01    0.141E-01
DAV:   4    -0.258143583506E+01    0.40971E-02   -0.10168E-03   205   0.227E-01    0.129E-02
DAV:   5    -0.258137205316E+01    0.63782E-04   -0.10512E-05   120   0.193E-02
 writing wavefunctions
   1 F= -.25813721E+01 E0= -.25818010E+01  d E =-.258137E+01
 BRION: g(F)=  0.126E-56 g(S)=  0.000E+00
 reached required accuracy - stopping structural energy minimisation
 writing wavefunctions
 writing wavefunctions
 writing wavefunctions
Note: The following floating-point exceptions are signalling: IEEE_UNDERFLOW_FLAG IEEE_DENORMAL
Note: The following floating-point exceptions are signalling: IEEE_UNDERFLOW_FLAG IEEE_DENORMAL
Note: The following floating-point exceptions are signalling: IEEE_UNDERFLOW_FLAG IEEE_DENORMAL
[...]
Note: The following floating-point exceptions are signalling: IEEE_UNDERFLOW_FLAG IEEE_DENORMAL
 running on    1 total cores
 distrk:  each k-point on    1 cores,    1 groups
 distr:  one band on    1 cores,    1 groups
 running on    1 total cores
 running on    1 total cores
 distrk:  each k-point on    1 cores,    1 groups
 distr:  one band on    1 cores,    1 groups
 distrk:  each k-point on    1 cores,    1 groups
 distr:  one band on    1 cores,    1 groups
 running on    1 total cores
 distrk:  each k-point on    1 cores,    1 groups
 distr:  one band on    1 cores,    1 groups
 vasp.6.2.1 16May21 (build Dec 20 2021 17:02:34) complex                         
 vasp.6.2.1 16May21 (build Dec 20 2021 17:02:34) complex                         
 POSCAR found type information on POSCAR Na
 POSCAR found :  1 types and       2 ions
 scaLAPACK will be used
 -----------------------------------------------------------------------------
|                                                                             |
|               ----> ADVICE to this user running VASP <----                  |
|                                                                             |
|     You enforced a specific xc type in the INCAR file but a different       |
|     type was found in the POTCAR file.                                      |
|     I HOPE YOU KNOW WHAT YOU ARE DOING!                                     |
|                                                                             |
 -----------------------------------------------------------------------------

 vasp.6.2.1 16May21 (build Dec 20 2021 17:02:34) complex                         
 POSCAR found type information on POSCAR Na
 POSCAR found :  1 types and       2 ions
 scaLAPACK will be used
 LDA part: xc-table for Pade appr. of Perdew
 -----------------------------------------------------------------------------
|                                                                             |
|               ----> ADVICE to this user running VASP <----                  |
|                                                                             |
|     You enforced a specific xc type in the INCAR file but a different       |
|     type was found in the POTCAR file.                                      |
|     I HOPE YOU KNOW WHAT YOU ARE DOING!                                     |
|                                                                             |
 -----------------------------------------------------------------------------

 LDA part: xc-table for Pade appr. of Perdew
 vasp.6.2.1 16May21 (build Dec 20 2021 17:02:34) complex                         
 POSCAR found type information on POSCAR Na
 POSCAR found :  1 types and       2 ions
 scaLAPACK will be used
 -----------------------------------------------------------------------------
|                                                                             |
|               ----> ADVICE to this user running VASP <----                  |
|                                                                             |
|     You enforced a specific xc type in the INCAR file but a different       |
|     type was found in the POTCAR file.                                      |
|     I HOPE YOU KNOW WHAT YOU ARE DOING!                                     |
|                                                                             |
 -----------------------------------------------------------------------------

 POSCAR found type information on POSCAR Na
 POSCAR found :  1 types and       2 ions
 found WAVECAR, reading the header
  number of k-points has changed, file:    35 present:    56
  trying to continue reading WAVECAR, but it might fail
 scaLAPACK will be used
 -----------------------------------------------------------------------------
|                                                                             |
|               ----> ADVICE to this user running VASP <----                  |
|                                                                             |
|     You enforced a specific xc type in the INCAR file but a different       |
|     type was found in the POTCAR file.                                      |
|     I HOPE YOU KNOW WHAT YOU ARE DOING!                                     |
|                                                                             |
 -----------------------------------------------------------------------------

 LDA part: xc-table for Pade appr. of Perdew
 LDA part: xc-table for Pade appr. of Perdew
 found WAVECAR, reading the header
  number of k-points has changed, file:    35 present:    56
  trying to continue reading WAVECAR, but it might fail
 found WAVECAR, reading the header
  number of k-points has changed, file:    35 present:    56
  trying to continue reading WAVECAR, but it might fail
 POSCAR, INCAR and KPOINTS ok, starting setup
 found WAVECAR, reading the header
  number of k-points has changed, file:    35 present:    56
  trying to continue reading WAVECAR, but it might fail
 FFT: planning ...
 reading WAVECAR
 the WAVECAR file was read successfully
 initial charge from wavefunction
 entering main loop
       N       E                     dE             d eps       ncg     rms          rms(c)
 POSCAR, INCAR and KPOINTS ok, starting setup
 FFT: planning ...
 reading WAVECAR
 the WAVECAR file was read successfully
 initial charge from wavefunction
 POSCAR, INCAR and KPOINTS ok, starting setup
 entering main loop
DAV:   1    -0.215011492959E+01   -0.21501E+01   -0.24727E-01   695   0.130E+00BRMIX: very serious problems
 the old and the new charge density differ
 old charge density:     0.99606 new    2.00000
    0.115E+00
 FFT: planning ...
 POSCAR, INCAR and KPOINTS ok, starting setup
 reading WAVECAR
 the WAVECAR file was read successfully
 FFT: planning ...
 initial charge from wavefunction
 entering main loop
 reading WAVECAR
 the WAVECAR file was read successfully
       N       E                     dE             d eps       ncg     rms          rms(c)
 initial charge from wavefunction
DAV:   2    -0.260145468280E+01   -0.45134E+00   -0.71911E-02   635   0.166E+00 entering main loop
    0.152E-01
       N       E                     dE             d eps       ncg     rms          rms(c)
       N       E                     dE             d eps       ncg     rms          rms(c)
DAV:   1    -0.215011492959E+01   -0.21501E+01   -0.24727E-01   695   0.130E+00DAV:   3    -0.259630875106E+01    0.51459E-02   -0.13702E-03   835   0.234E-01BRMIX: very serious problems
 the old and the new charge density differ
 old charge density:     0.99606 new    2.00000
    0.115E+00
    0.615E-02
DAV:   1    -0.215011492959E+01   -0.21501E+01   -0.24727E-01   695   0.130E+00BRMIX: very serious problems
 the old and the new charge density differ
 old charge density:     0.99606 new    2.00000
    0.115E+00
DAV:   2    -0.260145468280E+01   -0.45134E+00   -0.71911E-02   635   0.166E+00DAV:   4    -0.259583796551E+01    0.47079E-03   -0.17491E-04   665   0.102E-01    0.152E-01
    0.986E-03
DAV:   1    -0.215011492959E+01   -0.21501E+01   -0.24727E-01   695   0.130E+00BRMIX: very serious problems
 the old and the new charge density differ
 old charge density:     0.99606 new    2.00000
    0.115E+00
DAV:   2    -0.260145468280E+01   -0.45134E+00   -0.71911E-02   635   0.166E+00DAV:   5    -0.259579207847E+01    0.45887E-04   -0.71693E-06   305   0.200E-02
    0.152E-01
DAV:   3    -0.259630875106E+01    0.51459E-02   -0.13702E-03   835   0.234E-01    0.615E-02
DAV:   2    -0.260145468280E+01   -0.45134E+00   -0.71911E-02   635   0.166E+00    0.152E-01
   1 F= -.25957921E+01 E0= -.25966410E+01  d E =-.259579E+01
 curvature:   0.00 expect dE= 0.000E+00 dE for cont linesearch  0.000E+00
 trial: gam= 0.00000 g(F)=  0.239E-54 g(S)=  0.000E+00 ort = 0.000E+00 (trialstep = 0.100E+01)
 search vector abs. value=  0.100E-09
 reached required accuracy - stopping structural energy minimisation
DAV:   3    -0.259630875106E+01    0.51459E-02   -0.13702E-03   835   0.234E-01    0.615E-02
DAV:   4    -0.259583796551E+01    0.47079E-03   -0.17491E-04   665   0.102E-01    0.986E-03
DAV:   3    -0.259630875106E+01    0.51459E-02   -0.13702E-03   835   0.234E-01    0.615E-02
DAV:   5    -0.259579207847E+01    0.45887E-04   -0.71693E-06   305   0.200E-02
DAV:   4    -0.259583796551E+01    0.47079E-03   -0.17491E-04   665   0.102E-01    0.986E-03
DAV:   4    -0.259583796551E+01    0.47079E-03   -0.17491E-04   665   0.102E-01DAV:   5    -0.259579207847E+01    0.45887E-04   -0.71693E-06   305   0.200E-02
    0.986E-03
 writing wavefunctions
   1 F= -.25957921E+01 E0= -.25966410E+01  d E =-.259579E+01
 curvature:   0.00 expect dE= 0.000E+00 dE for cont linesearch  0.000E+00
 trial: gam= 0.00000 g(F)=  0.502E-56 g(S)=  0.000E+00 ort = 0.000E+00 (trialstep = 0.100E+01)
 search vector abs. value=  0.100E-09
 reached required accuracy - stopping structural energy minimisation
DAV:   5    -0.259579207847E+01    0.45887E-04   -0.71693E-06   305   0.200E-02
   1 F= -.25957921E+01 E0= -.25966410E+01  d E =-.259579E+01
 curvature:   0.00 expect dE= 0.000E+00 dE for cont linesearch  0.000E+00
 trial: gam= 0.00000 g(F)=  0.384E-56 g(S)=  0.000E+00 ort = 0.000E+00 (trialstep = 0.100E+01)
 search vector abs. value=  0.100E-09
 reached required accuracy - stopping structural energy minimisation
   1 F= -.25957921E+01 E0= -.25966410E+01  d E =-.259579E+01
 curvature:   0.00 expect dE= 0.000E+00 dE for cont linesearch  0.000E+00
 trial: gam= 0.00000 g(F)=  0.489E-55 g(S)=  0.000E+00 ort = 0.000E+00 (trialstep = 0.100E+01)
 search vector abs. value=  0.100E-09
 reached required accuracy - stopping structural energy minimisation
 writing wavefunctions
 writing wavefunctions
 writing wavefunctions
Note: The following floating-point exceptions are signalling: IEEE_UNDERFLOW_FLAG IEEE_DENORMAL
Note: The following floating-point exceptions are signalling: IEEE_UNDERFLOW_FLAG IEEE_DENORMAL
Note: The following floating-point exceptions are signalling: IEEE_UNDERFLOW_FLAG IEEE_DENORMAL
Note: The following floating-point exceptions are signalling: IEEE_UNDERFLOW_FLAG IEEE_DENORMAL
 running on    1 total cores
 distrk:  each k-point on    1 cores,    1 groups
 distr:  one band on    1 cores,    1 groups
 running on    1 total cores
 running on    1 total cores
 running on    1 total cores
 distrk:  each k-point on    1 cores,    1 groups
 distr:  one band on    1 cores,    1 groups
 distrk:  each k-point on    1 cores,    1 groups
 distrk:  each k-point on    1 cores,    1 groups
 distr:  one band on    1 cores,    1 groups
 distr:  one band on    1 cores,    1 groups
 vasp.6.2.1 16May21 (build Dec 20 2021 17:02:34) complex                         
 vasp.6.2.1 16May21 (build Dec 20 2021 17:02:34) complex                         
 POSCAR found type information on POSCAR Na
 POSCAR found :  1 types and       2 ions
 scaLAPACK will be used
 vasp.6.2.1 16May21 (build Dec 20 2021 17:02:34) complex                         
 -----------------------------------------------------------------------------
|                                                                             |
|               ----> ADVICE to this user running VASP <----                  |
|                                                                             |
|     You enforced a specific xc type in the INCAR file but a different       |
|     type was found in the POTCAR file.                                      |
|     I HOPE YOU KNOW WHAT YOU ARE DOING!                                     |
|                                                                             |
 -----------------------------------------------------------------------------

 POSCAR found type information on POSCAR Na
 POSCAR found :  1 types and       2 ions
 scaLAPACK will be used
 LDA part: xc-table for Pade appr. of Perdew
 -----------------------------------------------------------------------------
|                                                                             |
|               ----> ADVICE to this user running VASP <----                  |
|                                                                             |
|     You enforced a specific xc type in the INCAR file but a different       |
|     type was found in the POTCAR file.                                      |
|     I HOPE YOU KNOW WHAT YOU ARE DOING!                                     |
|                                                                             |
 -----------------------------------------------------------------------------

 LDA part: xc-table for Pade appr. of Perdew
 vasp.6.2.1 16May21 (build Dec 20 2021 17:02:34) complex                         
 POSCAR found type information on POSCAR Na
 POSCAR found :  1 types and       2 ions
 scaLAPACK will be used
 found WAVECAR, reading the header
  number of k-points has changed, file:    56 present:    84
  trying to continue reading WAVECAR, but it might fail
 -----------------------------------------------------------------------------
|                                                                             |
|               ----> ADVICE to this user running VASP <----                  |
|                                                                             |
|     You enforced a specific xc type in the INCAR file but a different       |
|     type was found in the POTCAR file.                                      |
|     I HOPE YOU KNOW WHAT YOU ARE DOING!                                     |
|                                                                             |
 -----------------------------------------------------------------------------

 POSCAR found type information on POSCAR Na
 POSCAR found :  1 types and       2 ions
 scaLAPACK will be used
 -----------------------------------------------------------------------------
|                                                                             |
|               ----> ADVICE to this user running VASP <----                  |
|                                                                             |
|     You enforced a specific xc type in the INCAR file but a different       |
|     type was found in the POTCAR file.                                      |
|     I HOPE YOU KNOW WHAT YOU ARE DOING!                                     |
|                                                                             |
 -----------------------------------------------------------------------------

 LDA part: xc-table for Pade appr. of Perdew
 LDA part: xc-table for Pade appr. of Perdew
 found WAVECAR, reading the header
  number of k-points has changed, file:    56 present:    84
  trying to continue reading WAVECAR, but it might fail
 found WAVECAR, reading the header
  number of k-points has changed, file:    56 present:    84
  trying to continue reading WAVECAR, but it might fail
 POSCAR, INCAR and KPOINTS ok, starting setup
 found WAVECAR, reading the header
  number of k-points has changed, file:    56 present:    84
  trying to continue reading WAVECAR, but it might fail
 FFT: planning ...
 reading WAVECAR
 the WAVECAR file was read successfully
 initial charge from wavefunction
 entering main loop
       N       E                     dE             d eps       ncg     rms          rms(c)
 POSCAR, INCAR and KPOINTS ok, starting setup
 FFT: planning ...
 reading WAVECAR
 the WAVECAR file was read successfully
 initial charge from wavefunction
 POSCAR, INCAR and KPOINTS ok, starting setup
 entering main loop
 FFT: planning ...
 reading WAVECAR
 the WAVECAR file was read successfully
 initial charge from wavefunction
 POSCAR, INCAR and KPOINTS ok, starting setup
       N       E                     dE             d eps       ncg     rms          rms(c)
 FFT: planning ...
DAV:   1    -0.226051301133E+01   -0.22605E+01   -0.21529E-01  1045   0.127E+00 entering main loop
 reading WAVECAR
BRMIX: very serious problems
 the old and the new charge density differ
 old charge density:     1.12009 new    2.00000
    0.101E+00
 the WAVECAR file was read successfully
 initial charge from wavefunction
       N       E                     dE             d eps       ncg     rms          rms(c)
 entering main loop
       N       E                     dE             d eps       ncg     rms          rms(c)
DAV:   2    -0.259529507601E+01   -0.33478E+00   -0.49872E-02   990   0.140E+00    0.134E-01
DAV:   1    -0.226051301133E+01   -0.22605E+01   -0.21529E-01  1045   0.127E+00BRMIX: very serious problems
 the old and the new charge density differ
 old charge density:     1.12009 new    2.00000
    0.101E+00
DAV:   1    -0.226051301133E+01   -0.22605E+01   -0.21529E-01  1045   0.127E+00BRMIX: very serious problems
 the old and the new charge density differ
 old charge density:     1.12009 new    2.00000
    0.101E+00
DAV:   1    -0.226051301133E+01   -0.22605E+01   -0.21529E-01  1045   0.127E+00BRMIX: very serious problems
 the old and the new charge density differ
 old charge density:     1.12009 new    2.00000
    0.101E+00
DAV:   3    -0.259098987395E+01    0.43052E-02   -0.13500E-03  1210   0.245E-01DAV:   2    -0.259529507601E+01   -0.33478E+00   -0.49872E-02   990   0.140E+00    0.328E-02
    0.134E-01
DAV:   2    -0.259529507601E+01   -0.33478E+00   -0.49872E-02   990   0.140E+00    0.134E-01
DAV:   2    -0.259529507601E+01   -0.33478E+00   -0.49872E-02   990   0.140E+00DAV:   4    -0.259095461232E+01    0.35262E-04   -0.37847E-05   800   0.469E-02
    0.134E-01
DAV:   3    -0.259098987395E+01    0.43052E-02   -0.13500E-03  1210   0.245E-01    0.328E-02
DAV:   3    -0.259098987395E+01    0.43052E-02   -0.13500E-03  1210   0.245E-01    0.328E-02
   1 F= -.25909546E+01 E0= -.25906505E+01  d E =-.259095E+01
 curvature:   0.00 expect dE= 0.000E+00 dE for cont linesearch  0.000E+00
 trial: gam= 0.00000 g(F)=  0.276E-53 g(S)=  0.000E+00 ort = 0.000E+00 (trialstep = 0.100E+01)
 search vector abs. value=  0.100E-09
 reached required accuracy - stopping structural energy minimisation
DAV:   3    -0.259098987395E+01    0.43052E-02   -0.13500E-03  1210   0.245E-01DAV:   4    -0.259095461232E+01    0.35262E-04   -0.37847E-05   800   0.469E-02
    0.328E-02
DAV:   4    -0.259095461232E+01    0.35262E-04   -0.37847E-05   800   0.469E-02
DAV:   4    -0.259095461232E+01    0.35262E-04   -0.37847E-05   800   0.469E-02
 writing wavefunctions
   1 F= -.25909546E+01 E0= -.25906505E+01  d E =-.259095E+01
 curvature:   0.00 expect dE= 0.000E+00 dE for cont linesearch  0.000E+00
 trial: gam= 0.00000 g(F)=  0.667E-56 g(S)=  0.000E+00 ort = 0.000E+00 (trialstep = 0.100E+01)
 search vector abs. value=  0.100E-09
 reached required accuracy - stopping structural energy minimisation
   1 F= -.25909546E+01 E0= -.25906505E+01  d E =-.259095E+01
 curvature:   0.00 expect dE= 0.000E+00 dE for cont linesearch  0.000E+00
 trial: gam= 0.00000 g(F)=  0.152E-54 g(S)=  0.000E+00 ort = 0.000E+00 (trialstep = 0.100E+01)
 search vector abs. value=  0.100E-09
 reached required accuracy - stopping structural energy minimisation
   1 F= -.25909546E+01 E0= -.25906505E+01  d E =-.259095E+01
 curvature:   0.00 expect dE= 0.000E+00 dE for cont linesearch  0.000E+00
 trial: gam= 0.00000 g(F)=  0.139E-54 g(S)=  0.000E+00 ort = 0.000E+00 (trialstep = 0.100E+01)
 search vector abs. value=  0.100E-09
 reached required accuracy - stopping structural energy minimisation
 writing wavefunctions
 writing wavefunctions
 writing wavefunctions
Note: The following floating-point exceptions are signalling: IEEE_UNDERFLOW_FLAG IEEE_DENORMAL
Note: The following floating-point exceptions are signalling: IEEE_UNDERFLOW_FLAG IEEE_DENORMAL
Note: The following floating-point exceptions are signalling: IEEE_UNDERFLOW_FLAG IEEE_DENORMAL
Note: The following floating-point exceptions are signalling: IEEE_UNDERFLOW_FLAG IEEE_DENORMAL
