       N       E                     dE             d eps       ncg     rms          rms(c)
DAV:   1    -0.226989552835E+01   -0.22699E+01   -0.25806E-01  1035   0.143E+00    0.101E+00
DAV:   2    -0.260859883974E+01   -0.33870E+00   -0.43567E-02   985   0.127E+00    0.130E-01
DAV:   3    -0.260392669570E+01    0.46721E-02   -0.16728E-03  1225   0.270E-01    0.280E-02
DAV:   4    -0.260391484576E+01    0.11850E-04   -0.30368E-05   790   0.396E-02
   1 F= -.26039148E+01 E0= -.26036112E+01  d E =-.260391E+01
       N       E                     dE             d eps       ncg     rms          rms(c)
DAV:   1    -0.260618000120E+01   -0.22533E-02   -0.77797E-04   980   0.132E-01    0.778E-03
DAV:   2    -0.260617970864E+01    0.29256E-06   -0.20838E-06   435   0.101E-02
   2 F= -.26061797E+01 E0= -.26058793E+01  d E =-.226486E-02
       N       E                     dE             d eps       ncg     rms          rms(c)
DAV:   1    -0.260917704144E+01   -0.29970E-02   -0.80359E-03   955   0.436E-01    0.206E-02
DAV:   2    -0.260915506885E+01    0.21973E-04   -0.23792E-05   755   0.330E-02
   3 F= -.26091551E+01 E0= -.26088645E+01  d E =-.524022E-02
