 vasp.6.2.1 16May21 (build Dec 20 2021 17:02:34) complex                         
 executed on             LinuxGNU date 2025.09.29  12:11:04
 running on    1 total cores
 distrk:  each k-point on    1 cores,    1 groups
 distr:  one band on NCORE=   1 cores,    1 groups


--------------------------------------------------------------------------------------------------------


 INCAR:
   ENCUT = 500
   ISIF = 3
   IBRION = 2
   NSW = 100
   LVTOT = .TRUE.
   LVHAR = .TRUE.

 POTCAR:   PAW_GGA Na 05Jan2001                   
 POTCAR:   PAW_GGA Na 05Jan2001                   
   VRHFIN =Na: s1p0                                                                                 
   LEXCH  = 91                                                                                      
   EATOM  =     5.1952 eV,     .3818 Ry                                                             
                                                                                                    
   TITEL  = PAW_GGA Na 05Jan2001                                                                    
   LULTRA =        F    use ultrasoft PP ?                                                          
   IUNSCR =        1    unscreen: 0-lin 1-nonlin 2-no                                               
   RPACOR =    2.300    partial core radius                                                         
   POMASS =   22.990; ZVAL   =    1.000    mass and valenz                                          
   RCORE  =    2.500    outmost cutoff radius                                                       
   RWIGS  =    3.320; RWIGS  =    1.757    wigner-seitz radius (au A)                               
   ENMAX  =   81.389; ENMIN  =   61.042 eV                                                          
   ICORE  =        2    local potential                                                             
   LCOR   =        T    correct aug charges                                                         
   LPAW   =        T    paw PP                                                                      
   EAUG   =  170.756                                                                                
   DEXC   =    -.041                                                                                
   RMAX   =    5.111    core radius for proj-oper                                                   
   RDEP   =    2.567    core radius for depl-charge                                                 
   QCUT   =   -2.446; QGAM   =    4.892    optimization parameters                                  
                                                                                                    
   Description                                                                                      
     l     E      TYP  RCUT    TYP  RCUT                                                            
     0   .000     23  2.500                                                                         
     0  2.000     23  2.500                                                                         
     1   .000     23  2.500                                                                         
     1  1.000     23  2.500                                                                         
     2   .000     23  2.500                                                                         
  local pseudopotential read in
  partial core-charges read in
  atomic valenz-charges read in
  non local Contribution for L=           0  read in
    real space projection operators read in
  non local Contribution for L=           0  read in
    real space projection operators read in
  non local Contribution for L=           1  read in
    real space projection operators read in
  non local Contribution for L=           1  read in
    real space projection operators read in
    PAW grid and wavefunctions read in

   number of l-projection  operators is LMAX  =           4
   number of lm-projection operators is LMMAX =           8

 PAW_GGA Na 05Jan2001                   :
 energy of atom  1       EATOM=   -5.1952
 kinetic energy error for atom=    0.0000 (will be added to EATOM!!)


 POSCAR: Na
  positions in cartesian coordinates
  No initial velocities read in
 exchange correlation table for  LEXCH =        7
   RHO(1)=    0.500       N(1)  =     2000
   RHO(2)=  100.500       N(2)  =     4000



--------------------------------------------------------------------------------------------------------


 ion  position               nearest neighbor table
   1  0.000  0.000  0.000-   2 3.71   2 3.71   2 3.71   2 3.71   2 3.71   2 3.71   2 3.71   2 3.71

   2  0.500  0.500  0.500-   1 3.71   1 3.71   1 3.71   1 3.71   1 3.71   1 3.71   1 3.71   1 3.71


  LATTYP: Found a simple cubic cell.
 ALAT       =     4.2820000648
  
  Lattice vectors:
  
 A1 = (   4.2820000648,   0.0000000000,   0.0000000000)
 A2 = (   0.0000000000,   4.2820000648,   0.0000000000)
 A3 = (   0.0000000000,   0.0000000000,   4.2820000648)


Analysis of symmetry for initial positions (statically):
=====================================================================
 Subroutine PRICEL returns following result:
 
  LATTYP: Found a body centered cubic cell.
 ALAT       =     4.2820000645
  
  Lattice vectors:
  
 A1 = (   2.1410000320,   2.1410000320,  -2.1410000328)
 A2 = (  -2.1410000320,   2.1410000328,   2.1410000328)
 A3 = (   2.1410000320,  -2.1410000328,   2.1410000320)
 
   2 primitive cells build up your supercell.
 

 Routine SETGRP: Setting up the symmetry group for a 
 simple cubic supercell.


 Subroutine GETGRP returns: Found 48 space group operations
 (whereof 48 operations were pure point group operations)
 out of a pool of 48 trial point group operations.


The static configuration has the point symmetry O_h .


Analysis of symmetry for dynamics (positions and initial velocities):
=====================================================================
 Subroutine PRICEL returns following result:
 
  LATTYP: Found a body centered cubic cell.
 ALAT       =     4.2820000645
  
  Lattice vectors:
  
 A1 = (   2.1410000320,   2.1410000320,  -2.1410000328)
 A2 = (  -2.1410000320,   2.1410000328,   2.1410000328)
 A3 = (   2.1410000320,  -2.1410000328,   2.1410000320)
 
   2 primitive cells build up your supercell.
 

 Routine SETGRP: Setting up the symmetry group for a 
 simple cubic supercell.


 Subroutine GETGRP returns: Found 48 space group operations
 (whereof 48 operations were pure point group operations)
 out of a pool of 48 trial point group operations.


The dynamic configuration has the point symmetry O_h .


 Subroutine INISYM returns: Found 48 space group operations
 (whereof 48 operations are pure point group operations),
 and found     2 'primitive' translations


----------------------------------------------------------------------------------------

                                     Primitive cell                                     

  volume of cell :      39.2564

  direct lattice vectors                    reciprocal lattice vectors
     2.141000032  2.141000032 -2.141000033     0.233535728  0.233535727 -0.000000000
    -2.141000032  2.141000033  2.141000033     0.000000000  0.233535727  0.233535727
     2.141000032 -2.141000033  2.141000032     0.233535728 -0.000000000  0.233535727

  length of vectors
     3.708320835  3.708320835  3.708320835     0.330269393  0.330269393  0.330269393

  position of ions in fractional coordinates (direct lattice)
     0.000000000  0.000000000  0.000000000

  ion indices of the primitive-cell ions
   primitive index   ion index
                 1           1

----------------------------------------------------------------------------------------



 KPOINTS: KPOINTS created by Atomic Simulation Env

Automatic generation of k-mesh.
 Grid dimensions read from file:
 generate k-points for:   13   13   13

 Generating k-lattice:

  Cartesian coordinates                     Fractional coordinates (reciprocal lattice)
     0.017964287  0.000000000  0.000000000     0.076923077  0.000000000  0.000000000
     0.000000000  0.017964287  0.000000000     0.000000000  0.076923077  0.000000000
     0.000000000  0.000000000  0.017964287     0.000000000  0.000000000  0.076923077

  Length of vectors
     0.017964287  0.017964287  0.017964287

  Shift w.r.t. Gamma in fractional coordinates (k-lattice)
     0.000000000  0.000000000  0.000000000

 
 Subroutine IBZKPT returns following result:
 ===========================================
 
 Found     84 irreducible k-points:
 
 Following reciprocal coordinates:
            Coordinates               Weight
  0.000000  0.000000  0.000000      1.000000
  0.076923  0.000000  0.000000      6.000000
  0.153846  0.000000  0.000000      6.000000
  0.230769  0.000000  0.000000      6.000000
  0.307692  0.000000  0.000000      6.000000
  0.384615  0.000000  0.000000      6.000000
  0.461538  0.000000  0.000000      6.000000
  0.076923  0.076923  0.000000     12.000000
  0.153846  0.076923  0.000000     24.000000
  0.230769  0.076923  0.000000     24.000000
  0.307692  0.076923  0.000000     24.000000
  0.384615  0.076923  0.000000     24.000000
  0.461538  0.076923  0.000000     24.000000
  0.153846  0.153846  0.000000     12.000000
  0.230769  0.153846  0.000000     24.000000
  0.307692  0.153846  0.000000     24.000000
  0.384615  0.153846  0.000000     24.000000
  0.461538  0.153846  0.000000     24.000000
  0.230769  0.230769  0.000000     12.000000
  0.307692  0.230769  0.000000     24.000000
  0.384615  0.230769  0.000000     24.000000
  0.461538  0.230769  0.000000     24.000000
  0.307692  0.307692  0.000000     12.000000
  0.384615  0.307692  0.000000     24.000000
  0.461538  0.307692  0.000000     24.000000
  0.384615  0.384615  0.000000     12.000000
  0.461538  0.384615  0.000000     24.000000
  0.461538  0.461538  0.000000     12.000000
  0.076923  0.076923  0.076923      8.000000
  0.153846  0.076923  0.076923     24.000000
  0.230769  0.076923  0.076923     24.000000
  0.307692  0.076923  0.076923     24.000000
  0.384615  0.076923  0.076923     24.000000
  0.461538  0.076923  0.076923     24.000000
  0.153846  0.153846  0.076923     24.000000
  0.230769  0.153846  0.076923     48.000000
  0.307692  0.153846  0.076923     48.000000
  0.384615  0.153846  0.076923     48.000000
  0.461538  0.153846  0.076923     48.000000
  0.230769  0.230769  0.076923     24.000000
  0.307692  0.230769  0.076923     48.000000
  0.384615  0.230769  0.076923     48.000000
  0.461538  0.230769  0.076923     48.000000
  0.307692  0.307692  0.076923     24.000000
  0.384615  0.307692  0.076923     48.000000
  0.461538  0.307692  0.076923     48.000000
  0.384615  0.384615  0.076923     24.000000
  0.461538  0.384615  0.076923     48.000000
  0.461538  0.461538  0.076923     24.000000
  0.153846  0.153846  0.153846      8.000000
  0.230769  0.153846  0.153846     24.000000
  0.307692  0.153846  0.153846     24.000000
  0.384615  0.153846  0.153846     24.000000
  0.461538  0.153846  0.153846     24.000000
  0.230769  0.230769  0.153846     24.000000
  0.307692  0.230769  0.153846     48.000000
  0.384615  0.230769  0.153846     48.000000
  0.461538  0.230769  0.153846     48.000000
  0.307692  0.307692  0.153846     24.000000
  0.384615  0.307692  0.153846     48.000000
  0.461538  0.307692  0.153846     48.000000
  0.384615  0.384615  0.153846     24.000000
  0.461538  0.384615  0.153846     48.000000
  0.461538  0.461538  0.153846     24.000000
  0.230769  0.230769  0.230769      8.000000
  0.307692  0.230769  0.230769     24.000000
  0.384615  0.230769  0.230769     24.000000
  0.461538  0.230769  0.230769     24.000000
  0.307692  0.307692  0.230769     24.000000
  0.384615  0.307692  0.230769     48.000000
  0.461538  0.307692  0.230769     48.000000
  0.384615  0.384615  0.230769     24.000000
  0.461538  0.384615  0.230769     48.000000
  0.461538  0.461538  0.230769     24.000000
  0.307692  0.307692  0.307692      8.000000
  0.384615  0.307692  0.307692     24.000000
  0.461538  0.307692  0.307692     24.000000
  0.384615  0.384615  0.307692     24.000000
  0.461538  0.384615  0.307692     48.000000
  0.461538  0.461538  0.307692     24.000000
  0.384615  0.384615  0.384615      8.000000
  0.461538  0.384615  0.384615     24.000000
  0.461538  0.461538  0.384615     24.000000
  0.461538  0.461538  0.461538      8.000000
 
 Following cartesian coordinates:
            Coordinates               Weight
  0.000000  0.000000  0.000000      1.000000
  0.017964  0.000000  0.000000      6.000000
  0.035929  0.000000  0.000000      6.000000
  0.053893  0.000000  0.000000      6.000000
  0.071857  0.000000  0.000000      6.000000
  0.089821  0.000000  0.000000      6.000000
  0.107786  0.000000  0.000000      6.000000
  0.017964  0.017964  0.000000     12.000000
  0.035929  0.017964  0.000000     24.000000
  0.053893  0.017964  0.000000     24.000000
  0.071857  0.017964  0.000000     24.000000
  0.089821  0.017964  0.000000     24.000000
  0.107786  0.017964  0.000000     24.000000
  0.035929  0.035929  0.000000     12.000000
  0.053893  0.035929  0.000000     24.000000
  0.071857  0.035929  0.000000     24.000000
  0.089821  0.035929  0.000000     24.000000
  0.107786  0.035929  0.000000     24.000000
  0.053893  0.053893  0.000000     12.000000
  0.071857  0.053893  0.000000     24.000000
  0.089821  0.053893  0.000000     24.000000
  0.107786  0.053893  0.000000     24.000000
  0.071857  0.071857  0.000000     12.000000
  0.089821  0.071857  0.000000     24.000000
  0.107786  0.071857  0.000000     24.000000
  0.089821  0.089821  0.000000     12.000000
  0.107786  0.089821  0.000000     24.000000
  0.107786  0.107786  0.000000     12.000000
  0.017964  0.017964  0.017964      8.000000
  0.035929  0.017964  0.017964     24.000000
  0.053893  0.017964  0.017964     24.000000
  0.071857  0.017964  0.017964     24.000000
  0.089821  0.017964  0.017964     24.000000
  0.107786  0.017964  0.017964     24.000000
  0.035929  0.035929  0.017964     24.000000
  0.053893  0.035929  0.017964     48.000000
  0.071857  0.035929  0.017964     48.000000
  0.089821  0.035929  0.017964     48.000000
  0.107786  0.035929  0.017964     48.000000
  0.053893  0.053893  0.017964     24.000000
  0.071857  0.053893  0.017964     48.000000
  0.089821  0.053893  0.017964     48.000000
  0.107786  0.053893  0.017964     48.000000
  0.071857  0.071857  0.017964     24.000000
  0.089821  0.071857  0.017964     48.000000
  0.107786  0.071857  0.017964     48.000000
  0.089821  0.089821  0.017964     24.000000
  0.107786  0.089821  0.017964     48.000000
  0.107786  0.107786  0.017964     24.000000
  0.035929  0.035929  0.035929      8.000000
  0.053893  0.035929  0.035929     24.000000
  0.071857  0.035929  0.035929     24.000000
  0.089821  0.035929  0.035929     24.000000
  0.107786  0.035929  0.035929     24.000000
  0.053893  0.053893  0.035929     24.000000
  0.071857  0.053893  0.035929     48.000000
  0.089821  0.053893  0.035929     48.000000
  0.107786  0.053893  0.035929     48.000000
  0.071857  0.071857  0.035929     24.000000
  0.089821  0.071857  0.035929     48.000000
  0.107786  0.071857  0.035929     48.000000
  0.089821  0.089821  0.035929     24.000000
  0.107786  0.089821  0.035929     48.000000
  0.107786  0.107786  0.035929     24.000000
  0.053893  0.053893  0.053893      8.000000
  0.071857  0.053893  0.053893     24.000000
  0.089821  0.053893  0.053893     24.000000
  0.107786  0.053893  0.053893     24.000000
  0.071857  0.071857  0.053893     24.000000
  0.089821  0.071857  0.053893     48.000000
  0.107786  0.071857  0.053893     48.000000
  0.089821  0.089821  0.053893     24.000000
  0.107786  0.089821  0.053893     48.000000
  0.107786  0.107786  0.053893     24.000000
  0.071857  0.071857  0.071857      8.000000
  0.089821  0.071857  0.071857     24.000000
  0.107786  0.071857  0.071857     24.000000
  0.089821  0.089821  0.071857     24.000000
  0.107786  0.089821  0.071857     48.000000
  0.107786  0.107786  0.071857     24.000000
  0.089821  0.089821  0.089821      8.000000
  0.107786  0.089821  0.089821     24.000000
  0.107786  0.107786  0.089821     24.000000
  0.107786  0.107786  0.107786      8.000000
 


--------------------------------------------------------------------------------------------------------




 Dimension of arrays:
   k-points           NKPTS =     84   k-points in BZ     NKDIM =     84   number of bands    NBANDS=      5
   number of dos      NEDOS =    301   number of ions     NIONS =      2
   non local maximal  LDIM  =      4   non local SUM 2l+1 LMDIM =      8
   total plane-waves  NPLWV =  13824
   max r-space proj   IRMAX =      1   max aug-charges    IRDMAX=  15447
   dimension x,y,z NGX =    24 NGY =   24 NGZ =   24
   dimension x,y,z NGXF=    48 NGYF=   48 NGZF=   48
   support grid    NGXF=    48 NGYF=   48 NGZF=   48
   ions per type =               2
   NGX,Y,Z   is equivalent  to a cutoff of   9.32,  9.32,  9.32 a.u.
   NGXF,Y,Z  is equivalent  to a cutoff of  18.64, 18.64, 18.64 a.u.

 SYSTEM =  unknown system                          
 POSCAR =  Na                                      

 Startparameter for this run:
   NWRITE =      2    write-flag & timer
   PREC   = normal    normal or accurate (medium, high low for compatibility)
   ISTART =      1    job   : 0-new  1-cont  2-samecut
   ICHARG =      0    charge: 1-file 2-atom 10-const
   ISPIN  =      1    spin polarized calculation?
   LNONCOLLINEAR =      F non collinear calculations
   LSORBIT =      F    spin-orbit coupling
   INIWAV =      1    electr: 0-lowe 1-rand  2-diag
   LASPH  =      F    aspherical Exc in radial PAW
 Electronic Relaxation 1
   ENCUT  =  500.0 eV  36.75 Ry    6.06 a.u.   7.81  7.81  7.81*2*pi/ulx,y,z
   ENINI  =  500.0     initial cutoff
   ENAUG  =  170.8 eV  augmentation charge cutoff
   NELM   =     60;   NELMIN=  2; NELMDL=  0     # of ELM steps 
   EDIFF  = 0.1E-03   stopping-criterion for ELM
   LREAL  =      F    real-space projection
   NLSPLINE    = F    spline interpolate recip. space projectors
   LCOMPAT=      F    compatible to vasp.4.4
   GGA_COMPAT  = T    GGA compatible to vasp.4.4-vasp.4.6
   LMAXPAW     = -100 max onsite density
   LMAXMIX     =    2 max onsite mixed and CHGCAR
   VOSKOWN=      0    Vosko Wilk Nusair interpolation
   ROPT   =    0.00000
 Ionic relaxation
   EDIFFG = 0.1E-02   stopping-criterion for IOM
   NSW    =    100    number of steps for IOM
   NBLOCK =      1;   KBLOCK =    100    inner block; outer block 
   IBRION =      2    ionic relax: 0-MD 1-quasi-New 2-CG
   NFREE  =      1    steps in history (QN), initial steepest desc. (CG)
   ISIF   =      3    stress and relaxation
   IWAVPR =     11    prediction:  0-non 1-charg 2-wave 3-comb
   ISYM   =      2    0-nonsym 1-usesym 2-fastsym
   LCORR  =      T    Harris-Foulkes like correction to forces

   POTIM  = 0.5000    time-step for ionic-motion
   TEIN   =    0.0    initial temperature
   TEBEG  =    0.0;   TEEND  =   0.0 temperature during run
   SMASS  =  -3.00    Nose mass-parameter (am)
   estimated Nose-frequenzy (Omega)   =  0.10E-29 period in steps = 0.13E+47 mass=  -0.419E-27a.u.
   SCALEE = 1.0000    scale energy and forces
   NPACO  =    256;   APACO  = 16.0  distance and # of slots for P.C.
   PSTRESS=    0.0 pullay stress

  Mass of Ions in am
   POMASS =  22.99
  Ionic Valenz
   ZVAL   =   1.00
  Atomic Wigner-Seitz radii
   RWIGS  =  -1.00
  virtual crystal weights 
   VCA    =   1.00
   NELECT =       2.0000    total number of electrons
   NUPDOWN=      -1.0000    fix difference up-down

 DOS related values:
   EMIN   =  10.00;   EMAX   =-10.00  energy-range for DOS
   EFERMI =   0.00
   ISMEAR =     1;   SIGMA  =   0.20  broadening in eV -4-tet -1-fermi 0-gaus

 Electronic relaxation 2 (details)
   IALGO  =     38    algorithm
   LDIAG  =      T    sub-space diagonalisation (order eigenvalues)
   LSUBROT=      F    optimize rotation matrix (better conditioning)
   TURBO    =      0    0=normal 1=particle mesh
   IRESTART =      0    0=no restart 2=restart with 2 vectors
   NREBOOT  =      0    no. of reboots
   NMIN     =      0    reboot dimension
   EREF     =   0.00    reference energy to select bands
   IMIX   =      4    mixing-type and parameters
     AMIX     =   0.40;   BMIX     =  1.00
     AMIX_MAG =   1.60;   BMIX_MAG =  1.00
     AMIN     =   0.10
     WC   =   100.;   INIMIX=   1;  MIXPRE=   1;  MAXMIX= -45

 Intra band minimization:
   WEIMIN = 0.0010     energy-eigenvalue tresh-hold
   EBREAK =  0.50E-05  absolut break condition
   DEPER  =   0.30     relativ break condition  

   TIME   =   0.40     timestep for ELM

  volume/ion in A,a.u.               =      39.26       264.91
  Fermi-wavevector in a.u.,A,eV,Ry     =   0.481694  0.910270  3.156951  0.232029
  Thomas-Fermi vector in A             =   1.479925

 Write flags
   LWAVE        =      T    write WAVECAR
   LDOWNSAMPLE  =      F    k-point downsampling of WAVECAR
   LCHARG       =      T    write CHGCAR
   LVTOT        =      F    write LOCPOT, total local potential
   LVHAR        =      T    write LOCPOT, Hartree potential only
   LELF         =      F    write electronic localiz. function (ELF)
   LORBIT       =      0    0 simple, 1 ext, 2 COOP (PROOUT), +10 PAW based schemes


 Dipole corrections
   LMONO  =      F    monopole corrections only (constant potential shift)
   LDIPOL =      F    correct potential (dipole corrections)
   IDIPOL =      0    1-x, 2-y, 3-z, 4-all directions 
   EPSILON=  1.0000000 bulk dielectric constant

 Exchange correlation treatment:
   GGA     =    --    GGA type
   LEXCH   =     7    internal setting for exchange type
   VOSKOWN=      0    Vosko Wilk Nusair interpolation
   LHFCALC =     F    Hartree Fock is set to
   LHFONE  =     F    Hartree Fock one center treatment
   AEXX    =    0.0000 exact exchange contribution

 Linear response parameters
   LEPSILON=     F    determine dielectric tensor
   LRPA    =     F    only Hartree local field effects (RPA)
   LNABLA  =     F    use nabla operator in PAW spheres
   LVEL    =     F    velocity operator in full k-point grid
   LINTERFAST=   F  fast interpolation
   KINTER  =     0    interpolate to denser k-point grid
   CSHIFT  =0.1000    complex shift for real part using Kramers Kronig
   OMEGAMAX=  -1.0    maximum frequency
   DEG_THRESHOLD= 0.2000000E-02 threshold for treating states as degnerate
   RTIME   =   -0.100 relaxation time in fs
  (WPLASMAI=    0.000 imaginary part of plasma frequency in eV, 0.658/RTIME)
   DFIELD  = 0.0000000 0.0000000 0.0000000 field for delta impulse in time

 Orbital magnetization related:
   ORBITALMAG=     F  switch on orbital magnetization
   LCHIMAG   =     F  perturbation theory with respect to B field
   DQ        =  0.001000  dq finite difference perturbation B field
   LLRAUG    =     F  two centre corrections for induced B field



--------------------------------------------------------------------------------------------------------


 conjugate gradient relaxation of ions
 charge density and potential will be updated during run
 non-spin polarized calculation
 Variant of blocked Davidson
 Davidson routine will perform the subspace rotation
 perform sub-space diagonalisation
    after iterative eigenvector-optimisation
 modified Broyden-mixing scheme, WC =      100.0
 initial mixing is a Kerker type mixing with AMIX =  0.4000 and BMIX =      1.0000
 Hartree-type preconditioning will be used
 using additional bands            4
 reciprocal scheme for non local part
 use partial core corrections
 calculate Harris-corrections to forces   (improved forces if not selfconsistent)
 use gradient corrections 
 use of overlap-Matrix (Vanderbilt PP)
 Methfessel and Paxton  Order N= 1 SIGMA  =   0.20


--------------------------------------------------------------------------------------------------------


  energy-cutoff  :      500.00
  volume of cell :       78.51
      direct lattice vectors                 reciprocal lattice vectors
     4.282000065  0.000000000  0.000000000     0.233535727  0.000000000  0.000000000
     0.000000000  4.282000065  0.000000000     0.000000000  0.233535727  0.000000000
     0.000000000  0.000000000  4.282000065     0.000000000  0.000000000  0.233535727

  length of vectors
     4.282000065  4.282000065  4.282000065     0.233535727  0.233535727  0.233535727



 old parameters found on file WAVECAR:
  energy-cutoff  :      500.00
  volume of cell :       78.51
      direct lattice vectors                 reciprocal lattice vectors
     4.282000065  0.000000000  0.000000000     0.233535727  0.000000000  0.000000000
     0.000000000  4.282000065  0.000000000     0.000000000  0.233535727  0.000000000
     0.000000000  0.000000000  4.282000065     0.000000000  0.000000000  0.233535727

  length of vectors


 k-points in units of 2pi/SCALE and weight: KPOINTS created by Atomic Simulation Env
   0.00000000  0.00000000  0.00000000       0.000
   0.01796429  0.00000000  0.00000000       0.003
   0.03592857  0.00000000  0.00000000       0.003
   0.05389286  0.00000000  0.00000000       0.003
   0.07185715  0.00000000  0.00000000       0.003
   0.08982143  0.00000000  0.00000000       0.003
   0.10778572  0.00000000  0.00000000       0.003
   0.01796429  0.01796429  0.00000000       0.005
   0.03592857  0.01796429  0.00000000       0.011
   0.05389286  0.01796429  0.00000000       0.011
   0.07185715  0.01796429  0.00000000       0.011
   0.08982143  0.01796429  0.00000000       0.011
   0.10778572  0.01796429  0.00000000       0.011
   0.03592857  0.03592857  0.00000000       0.005
   0.05389286  0.03592857  0.00000000       0.011
   0.07185715  0.03592857  0.00000000       0.011
   0.08982143  0.03592857  0.00000000       0.011
   0.10778572  0.03592857  0.00000000       0.011
   0.05389286  0.05389286  0.00000000       0.005
   0.07185715  0.05389286  0.00000000       0.011
   0.08982143  0.05389286  0.00000000       0.011
   0.10778572  0.05389286  0.00000000       0.011
   0.07185715  0.07185715  0.00000000       0.005
   0.08982143  0.07185715  0.00000000       0.011
   0.10778572  0.07185715  0.00000000       0.011
   0.08982143  0.08982143  0.00000000       0.005
   0.10778572  0.08982143  0.00000000       0.011
   0.10778572  0.10778572  0.00000000       0.005
   0.01796429  0.01796429  0.01796429       0.004
   0.03592857  0.01796429  0.01796429       0.011
   0.05389286  0.01796429  0.01796429       0.011
   0.07185715  0.01796429  0.01796429       0.011
   0.08982143  0.01796429  0.01796429       0.011
   0.10778572  0.01796429  0.01796429       0.011
   0.03592857  0.03592857  0.01796429       0.011
   0.05389286  0.03592857  0.01796429       0.022
   0.07185715  0.03592857  0.01796429       0.022
   0.08982143  0.03592857  0.01796429       0.022
   0.10778572  0.03592857  0.01796429       0.022
   0.05389286  0.05389286  0.01796429       0.011
   0.07185715  0.05389286  0.01796429       0.022
   0.08982143  0.05389286  0.01796429       0.022
   0.10778572  0.05389286  0.01796429       0.022
   0.07185715  0.07185715  0.01796429       0.011
   0.08982143  0.07185715  0.01796429       0.022
   0.10778572  0.07185715  0.01796429       0.022
   0.08982143  0.08982143  0.01796429       0.011
   0.10778572  0.08982143  0.01796429       0.022
   0.10778572  0.10778572  0.01796429       0.011
   0.03592857  0.03592857  0.03592857       0.004
   0.05389286  0.03592857  0.03592857       0.011
   0.07185715  0.03592857  0.03592857       0.011
   0.08982143  0.03592857  0.03592857       0.011
   0.10778572  0.03592857  0.03592857       0.011
   0.05389286  0.05389286  0.03592857       0.011
   0.07185715  0.05389286  0.03592857       0.022
   0.08982143  0.05389286  0.03592857       0.022
   0.10778572  0.05389286  0.03592857       0.022
   0.07185715  0.07185715  0.03592857       0.011
   0.08982143  0.07185715  0.03592857       0.022
   0.10778572  0.07185715  0.03592857       0.022
   0.08982143  0.08982143  0.03592857       0.011
   0.10778572  0.08982143  0.03592857       0.022
   0.10778572  0.10778572  0.03592857       0.011
   0.05389286  0.05389286  0.05389286       0.004
   0.07185715  0.05389286  0.05389286       0.011
   0.08982143  0.05389286  0.05389286       0.011
   0.10778572  0.05389286  0.05389286       0.011
   0.07185715  0.07185715  0.05389286       0.011
   0.08982143  0.07185715  0.05389286       0.022
   0.10778572  0.07185715  0.05389286       0.022
   0.08982143  0.08982143  0.05389286       0.011
   0.10778572  0.08982143  0.05389286       0.022
   0.10778572  0.10778572  0.05389286       0.011
   0.07185715  0.07185715  0.07185715       0.004
   0.08982143  0.07185715  0.07185715       0.011
   0.10778572  0.07185715  0.07185715       0.011
   0.08982143  0.08982143  0.07185715       0.011
   0.10778572  0.08982143  0.07185715       0.022
   0.10778572  0.10778572  0.07185715       0.011
   0.08982143  0.08982143  0.08982143       0.004
   0.10778572  0.08982143  0.08982143       0.011
   0.10778572  0.10778572  0.08982143       0.011
   0.10778572  0.10778572  0.10778572       0.004

 k-points in reciprocal lattice and weights: KPOINTS created by Atomic Simulation Env
   0.00000000  0.00000000  0.00000000       0.000
   0.07692308  0.00000000  0.00000000       0.003
   0.15384615  0.00000000  0.00000000       0.003
   0.23076923  0.00000000  0.00000000       0.003
   0.30769231  0.00000000  0.00000000       0.003
   0.38461538  0.00000000  0.00000000       0.003
   0.46153846  0.00000000  0.00000000       0.003
   0.07692308  0.07692308  0.00000000       0.005
   0.15384615  0.07692308  0.00000000       0.011
   0.23076923  0.07692308  0.00000000       0.011
   0.30769231  0.07692308  0.00000000       0.011
   0.38461538  0.07692308  0.00000000       0.011
   0.46153846  0.07692308  0.00000000       0.011
   0.15384615  0.15384615  0.00000000       0.005
   0.23076923  0.15384615  0.00000000       0.011
   0.30769231  0.15384615  0.00000000       0.011
   0.38461538  0.15384615  0.00000000       0.011
   0.46153846  0.15384615  0.00000000       0.011
   0.23076923  0.23076923  0.00000000       0.005
   0.30769231  0.23076923  0.00000000       0.011
   0.38461538  0.23076923  0.00000000       0.011
   0.46153846  0.23076923  0.00000000       0.011
   0.30769231  0.30769231  0.00000000       0.005
   0.38461538  0.30769231  0.00000000       0.011
   0.46153846  0.30769231  0.00000000       0.011
   0.38461538  0.38461538  0.00000000       0.005
   0.46153846  0.38461538  0.00000000       0.011
   0.46153846  0.46153846  0.00000000       0.005
   0.07692308  0.07692308  0.07692308       0.004
   0.15384615  0.07692308  0.07692308       0.011
   0.23076923  0.07692308  0.07692308       0.011
   0.30769231  0.07692308  0.07692308       0.011
   0.38461538  0.07692308  0.07692308       0.011
   0.46153846  0.07692308  0.07692308       0.011
   0.15384615  0.15384615  0.07692308       0.011
   0.23076923  0.15384615  0.07692308       0.022
   0.30769231  0.15384615  0.07692308       0.022
   0.38461538  0.15384615  0.07692308       0.022
   0.46153846  0.15384615  0.07692308       0.022
   0.23076923  0.23076923  0.07692308       0.011
   0.30769231  0.23076923  0.07692308       0.022
   0.38461538  0.23076923  0.07692308       0.022
   0.46153846  0.23076923  0.07692308       0.022
   0.30769231  0.30769231  0.07692308       0.011
   0.38461538  0.30769231  0.07692308       0.022
   0.46153846  0.30769231  0.07692308       0.022
   0.38461538  0.38461538  0.07692308       0.011
   0.46153846  0.38461538  0.07692308       0.022
   0.46153846  0.46153846  0.07692308       0.011
   0.15384615  0.15384615  0.15384615       0.004
   0.23076923  0.15384615  0.15384615       0.011
   0.30769231  0.15384615  0.15384615       0.011
   0.38461538  0.15384615  0.15384615       0.011
   0.46153846  0.15384615  0.15384615       0.011
   0.23076923  0.23076923  0.15384615       0.011
   0.30769231  0.23076923  0.15384615       0.022
   0.38461538  0.23076923  0.15384615       0.022
   0.46153846  0.23076923  0.15384615       0.022
   0.30769231  0.30769231  0.15384615       0.011
   0.38461538  0.30769231  0.15384615       0.022
   0.46153846  0.30769231  0.15384615       0.022
   0.38461538  0.38461538  0.15384615       0.011
   0.46153846  0.38461538  0.15384615       0.022
   0.46153846  0.46153846  0.15384615       0.011
   0.23076923  0.23076923  0.23076923       0.004
   0.30769231  0.23076923  0.23076923       0.011
   0.38461538  0.23076923  0.23076923       0.011
   0.46153846  0.23076923  0.23076923       0.011
   0.30769231  0.30769231  0.23076923       0.011
   0.38461538  0.30769231  0.23076923       0.022
   0.46153846  0.30769231  0.23076923       0.022
   0.38461538  0.38461538  0.23076923       0.011
   0.46153846  0.38461538  0.23076923       0.022
   0.46153846  0.46153846  0.23076923       0.011
   0.30769231  0.30769231  0.30769231       0.004
   0.38461538  0.30769231  0.30769231       0.011
   0.46153846  0.30769231  0.30769231       0.011
   0.38461538  0.38461538  0.30769231       0.011
   0.46153846  0.38461538  0.30769231       0.022
   0.46153846  0.46153846  0.30769231       0.011
   0.38461538  0.38461538  0.38461538       0.004
   0.46153846  0.38461538  0.38461538       0.011
   0.46153846  0.46153846  0.38461538       0.011
   0.46153846  0.46153846  0.46153846       0.004

 position of ions in fractional coordinates (direct lattice) 
   0.00000000  0.00000000  0.00000000
   0.50000000  0.50000000  0.50000000

 position of ions in cartesian coordinates  (Angst):
   0.00000000  0.00000000  0.00000000
   2.14100003  2.14100003  2.14100003



--------------------------------------------------------------------------------------------------------


 k-point   1 :   0.0000 0.0000 0.0000  plane waves:    1935
 k-point   2 :   0.0769 0.0000 0.0000  plane waves:    1975
 k-point   3 :   0.1538 0.0000 0.0000  plane waves:    1983
 k-point   4 :   0.2308 0.0000 0.0000  plane waves:    1980
 k-point   5 :   0.3077 0.0000 0.0000  plane waves:    1992
 k-point   6 :   0.3846 0.0000 0.0000  plane waves:    1996
 k-point   7 :   0.4615 0.0000 0.0000  plane waves:    2000
 k-point   8 :   0.0769 0.0769 0.0000  plane waves:    1987
 k-point   9 :   0.1538 0.0769 0.0000  plane waves:    1985
 k-point  10 :   0.2308 0.0769 0.0000  plane waves:    1989
 k-point  11 :   0.3077 0.0769 0.0000  plane waves:    1988
 k-point  12 :   0.3846 0.0769 0.0000  plane waves:    1995
 k-point  13 :   0.4615 0.0769 0.0000  plane waves:    1999
 k-point  14 :   0.1538 0.1538 0.0000  plane waves:    1995
 k-point  15 :   0.2308 0.1538 0.0000  plane waves:    1991
 k-point  16 :   0.3077 0.1538 0.0000  plane waves:    1993
 k-point  17 :   0.3846 0.1538 0.0000  plane waves:    1993
 k-point  18 :   0.4615 0.1538 0.0000  plane waves:    1991
 k-point  19 :   0.2308 0.2308 0.0000  plane waves:    1979
 k-point  20 :   0.3077 0.2308 0.0000  plane waves:    1991
 k-point  21 :   0.3846 0.2308 0.0000  plane waves:    1999
 k-point  22 :   0.4615 0.2308 0.0000  plane waves:    1997
 k-point  23 :   0.3077 0.3077 0.0000  plane waves:    2003
 k-point  24 :   0.3846 0.3077 0.0000  plane waves:    2003
 k-point  25 :   0.4615 0.3077 0.0000  plane waves:    2001
 k-point  26 :   0.3846 0.3846 0.0000  plane waves:    2005
 k-point  27 :   0.4615 0.3846 0.0000  plane waves:    1994
 k-point  28 :   0.4615 0.4615 0.0000  plane waves:    1991
 k-point  29 :   0.0769 0.0769 0.0769  plane waves:    1992
 k-point  30 :   0.1538 0.0769 0.0769  plane waves:    1992
 k-point  31 :   0.2308 0.0769 0.0769  plane waves:    1985
 k-point  32 :   0.3077 0.0769 0.0769  plane waves:    1978
 k-point  33 :   0.3846 0.0769 0.0769  plane waves:    1989
 k-point  34 :   0.4615 0.0769 0.0769  plane waves:    1995
 k-point  35 :   0.1538 0.1538 0.0769  plane waves:    1983
 k-point  36 :   0.2308 0.1538 0.0769  plane waves:    1979
 k-point  37 :   0.3077 0.1538 0.0769  plane waves:    1990
 k-point  38 :   0.3846 0.1538 0.0769  plane waves:    1993
 k-point  39 :   0.4615 0.1538 0.0769  plane waves:    2000
 k-point  40 :   0.2308 0.2308 0.0769  plane waves:    1987
 k-point  41 :   0.3077 0.2308 0.0769  plane waves:    1993
 k-point  42 :   0.3846 0.2308 0.0769  plane waves:    1991
 k-point  43 :   0.4615 0.2308 0.0769  plane waves:    1998
 k-point  44 :   0.3077 0.3077 0.0769  plane waves:    1999
 k-point  45 :   0.3846 0.3077 0.0769  plane waves:    2001
 k-point  46 :   0.4615 0.3077 0.0769  plane waves:    1997
 k-point  47 :   0.3846 0.3846 0.0769  plane waves:    1996
 k-point  48 :   0.4615 0.3846 0.0769  plane waves:    2003
 k-point  49 :   0.4615 0.4615 0.0769  plane waves:    2006
 k-point  50 :   0.1538 0.1538 0.1538  plane waves:    1974
 k-point  51 :   0.2308 0.1538 0.1538  plane waves:    1983
 k-point  52 :   0.3077 0.1538 0.1538  plane waves:    1987
 k-point  53 :   0.3846 0.1538 0.1538  plane waves:    1990
 k-point  54 :   0.4615 0.1538 0.1538  plane waves:    1980
 k-point  55 :   0.2308 0.2308 0.1538  plane waves:    1980
 k-point  56 :   0.3077 0.2308 0.1538  plane waves:    1990
 k-point  57 :   0.3846 0.2308 0.1538  plane waves:    1992
 k-point  58 :   0.4615 0.2308 0.1538  plane waves:    1999
 k-point  59 :   0.3077 0.3077 0.1538  plane waves:    1995
 k-point  60 :   0.3846 0.3077 0.1538  plane waves:    1998
 k-point  61 :   0.4615 0.3077 0.1538  plane waves:    2002
 k-point  62 :   0.3846 0.3846 0.1538  plane waves:    2004
 k-point  63 :   0.4615 0.3846 0.1538  plane waves:    2002
 k-point  64 :   0.4615 0.4615 0.1538  plane waves:    2008
 k-point  65 :   0.2308 0.2308 0.2308  plane waves:    1983
 k-point  66 :   0.3077 0.2308 0.2308  plane waves:    1994
 k-point  67 :   0.3846 0.2308 0.2308  plane waves:    1993
 k-point  68 :   0.4615 0.2308 0.2308  plane waves:    1999
 k-point  69 :   0.3077 0.3077 0.2308  plane waves:    1996
 k-point  70 :   0.3846 0.3077 0.2308  plane waves:    1995
 k-point  71 :   0.4615 0.3077 0.2308  plane waves:    1992
 k-point  72 :   0.3846 0.3846 0.2308  plane waves:    2000
 k-point  73 :   0.4615 0.3846 0.2308  plane waves:    1996
 k-point  74 :   0.4615 0.4615 0.2308  plane waves:    2012
 k-point  75 :   0.3077 0.3077 0.3077  plane waves:    1980
 k-point  76 :   0.3846 0.3077 0.3077  plane waves:    1984
 k-point  77 :   0.4615 0.3077 0.3077  plane waves:    2002
 k-point  78 :   0.3846 0.3846 0.3077  plane waves:    1990
 k-point  79 :   0.4615 0.3846 0.3077  plane waves:    1987
 k-point  80 :   0.4615 0.4615 0.3077  plane waves:    1988
 k-point  81 :   0.3846 0.3846 0.3846  plane waves:    1998
 k-point  82 :   0.4615 0.3846 0.3846  plane waves:    1983
 k-point  83 :   0.4615 0.4615 0.3846  plane waves:    1970
 k-point  84 :   0.4615 0.4615 0.4615  plane waves:    1968

 maximum and minimum number of plane-waves per node :      2012     1935

 maximum number of plane-waves:      2012
 maximum index in each direction: 
   IXMAX=    7   IYMAX=    7   IZMAX=    7
   IXMIN=   -8   IYMIN=   -8   IZMIN=   -8


 serial   3D FFT for wavefunctions
 parallel 3D FFT for charge:
    minimum data exchange during FFTs selected (reduces bandwidth)


 total amount of memory used by VASP MPI-rank0    64448. kBytes
=======================================================================

   base      :      30000. kBytes
   nonl-proj :      10880. kBytes
   fftplans  :       3916. kBytes
   grid      :       6018. kBytes
   one-center:          6. kBytes
   wavefun   :      13628. kBytes

     INWAV:  cpu time    0.0138: real time    0.0139
 Broyden mixing: mesh for mixing (old mesh)
   NGX = 15   NGY = 15   NGZ = 15
  (NGX  = 48   NGY  = 48   NGZ  = 48)
  gives a total of   3375 points

 charge density for first step will be calculated from the start-wavefunctions


--------------------------------------------------------------------------------------------------------


 Maximum index for augmentation-charges        14771 (set IRDMAX)


--------------------------------------------------------------------------------------------------------


 initial charge from wavefunction
 First call to EWALD:  gamma=   0.414
 Maximum number of real-space cells 3x 3x 3
 Maximum number of reciprocal cells 3x 3x 3

    FEWALD:  cpu time    0.0006: real time    0.0006


--------------------------------------- Iteration      1(   1)  ---------------------------------------


    POTLOK:  cpu time    0.0772: real time    0.5121
    SETDIJ:  cpu time    0.0035: real time    0.0035
     EDDAV:  cpu time    1.0370: real time    1.0425
       DOS:  cpu time    0.0021: real time    0.0021
    CHARGE:  cpu time    0.1032: real time    0.1036
    MIXING:  cpu time    0.0021: real time    0.0021
    --------------------------------------------
      LOOP:  cpu time    1.2251: real time    1.6658

 eigenvalue-minimisations  :  1035
 total energy-change (2. order) :-0.2269896E+01  (-0.2580583E-01)
 number of electron       2.0000000 magnetization 
 augmentation part       -0.0234616 magnetization 

 Broyden mixing:
  rms(total) = 0.10109E+00    rms(broyden)= 0.18882E-01
  rms(prec ) = 0.41728E-01
  weight for this iteration     100.00
  WARNING: grid for Broyden might be to small

 Free energy of the ion-electron system (eV)
  ---------------------------------------------------
  alpha Z        PSCENC =        -1.05627525
  Ewald energy   TEWEN  =       -12.23825003
  -Hartree energ DENC   =        -0.00948209
  -exchange      EXHF   =         0.00000000
  -V(xc)+E(xc)   XCENC  =       -20.85118712
  PAW double counting   =        21.56956172        0.01446951
  entropy T*S    EENTRO =        -0.00094561
  eigenvalues    EBANDS =        -0.08818152
  atomic energy  EATOM  =        10.39039485
  Solvation  Ediel_sol  =         0.00000000
  ---------------------------------------------------
  free energy    TOTEN  =        -2.26989553 eV

  energy without entropy =       -2.26894992  energy(sigma->0) =       -2.26958033


--------------------------------------------------------------------------------------------------------




--------------------------------------- Iteration      1(   2)  ---------------------------------------


    POTLOK:  cpu time    0.0735: real time    0.0738
    SETDIJ:  cpu time    0.0036: real time    0.0036
     EDDAV:  cpu time    1.0255: real time    1.0299
       DOS:  cpu time    0.0021: real time    0.0021
    CHARGE:  cpu time    0.1040: real time    0.1044
    MIXING:  cpu time    0.0018: real time    0.0018
    --------------------------------------------
      LOOP:  cpu time    1.2105: real time    1.2157

 eigenvalue-minimisations  :   985
 total energy-change (2. order) :-0.3387033E+00  (-0.4356704E-02)
 number of electron       2.0000000 magnetization 
 augmentation part       -0.0219732 magnetization 

 Broyden mixing:
  rms(total) = 0.12979E-01    rms(broyden)= 0.12979E-01
  rms(prec ) = 0.35545E-01
  weight for this iteration     100.00

 eigenvalues of (default mixing * dielectric matrix)
  average eigenvalue GAMMA=   2.0034
  2.0034

 Free energy of the ion-electron system (eV)
  ---------------------------------------------------
  alpha Z        PSCENC =        -1.05627525
  Ewald energy   TEWEN  =       -12.23825003
  -Hartree energ DENC   =        -0.01330305
  -exchange      EXHF   =         0.00000000
  -V(xc)+E(xc)   XCENC  =       -19.71832453
  PAW double counting   =        21.64343109       -0.07613494
  entropy T*S    EENTRO =        -0.00091013
  eigenvalues    EBANDS =        -1.53922684
  atomic energy  EATOM  =        10.39039485
  Solvation  Ediel_sol  =         0.00000000
  ---------------------------------------------------
  free energy    TOTEN  =        -2.60859884 eV

  energy without entropy =       -2.60768871  energy(sigma->0) =       -2.60829546


--------------------------------------------------------------------------------------------------------




--------------------------------------- Iteration      1(   3)  ---------------------------------------


    POTLOK:  cpu time    0.0761: real time    0.0765
    SETDIJ:  cpu time    0.0037: real time    0.0037
     EDDAV:  cpu time    1.1899: real time    1.1946
       DOS:  cpu time    0.0020: real time    0.0021
    CHARGE:  cpu time    0.1019: real time    0.1021
    MIXING:  cpu time    0.0017: real time    0.0017
    --------------------------------------------
      LOOP:  cpu time    1.3754: real time    1.3807

 eigenvalue-minimisations  :  1225
 total energy-change (2. order) : 0.4672144E-02  (-0.1672809E-03)
 number of electron       2.0000000 magnetization 
 augmentation part       -0.0224483 magnetization 

 Broyden mixing:
  rms(total) = 0.27964E-02    rms(broyden)= 0.27964E-02
  rms(prec ) = 0.88255E-02
  weight for this iteration     100.00

 eigenvalues of (default mixing * dielectric matrix)
  average eigenvalue GAMMA=   1.9692
  1.1366  2.8017

 Free energy of the ion-electron system (eV)
  ---------------------------------------------------
  alpha Z        PSCENC =        -1.05627525
  Ewald energy   TEWEN  =       -12.23825003
  -Hartree energ DENC   =        -0.02356705
  -exchange      EXHF   =         0.00000000
  -V(xc)+E(xc)   XCENC  =       -19.68092925
  PAW double counting   =        21.78180823       -0.23824785
  entropy T*S    EENTRO =        -0.00091102
  eigenvalues    EBANDS =        -1.53794933
  atomic energy  EATOM  =        10.39039485
  Solvation  Ediel_sol  =         0.00000000
  ---------------------------------------------------
  free energy    TOTEN  =        -2.60392670 eV

  energy without entropy =       -2.60301568  energy(sigma->0) =       -2.60362302


--------------------------------------------------------------------------------------------------------




--------------------------------------- Iteration      1(   4)  ---------------------------------------


    POTLOK:  cpu time    0.0726: real time    0.0729
    SETDIJ:  cpu time    0.0036: real time    0.0036
     EDDAV:  cpu time    0.8209: real time    0.8230
       DOS:  cpu time    0.0020: real time    0.0020
    --------------------------------------------
      LOOP:  cpu time    0.8991: real time    0.9015

 eigenvalue-minimisations  :   790
 total energy-change (2. order) : 0.1184994E-04  (-0.3036780E-05)
 number of electron       2.0000000 magnetization 
 augmentation part       -0.0224483 magnetization 

 Free energy of the ion-electron system (eV)
  ---------------------------------------------------
  alpha Z        PSCENC =        -1.05627525
  Ewald energy   TEWEN  =       -12.23825003
  -Hartree energ DENC   =        -0.02656489
  -exchange      EXHF   =         0.00000000
  -V(xc)+E(xc)   XCENC  =       -19.67155416
  PAW double counting   =        21.79793255       -0.25730790
  entropy T*S    EENTRO =        -0.00091091
  eigenvalues    EBANDS =        -1.54137911
  atomic energy  EATOM  =        10.39039485
  Solvation  Ediel_sol  =         0.00000000
  ---------------------------------------------------
  free energy    TOTEN  =        -2.60391485 eV

  energy without entropy =       -2.60300394  energy(sigma->0) =       -2.60361121


--------------------------------------------------------------------------------------------------------




 average (electrostatic) potential at core
  the test charge radii are     1.3586
  (the norm of the test charge is              1.0000)
       1 -32.0202       2 -32.0202



 E-fermi :   0.4852     XC(G=0):  -5.9046     alpha+bet : -4.8021

 Fermi energy:         0.4852253325

 k-point     1 :       0.0000    0.0000    0.0000
  band No.  band energies     occupation 
      1      -2.6833      2.00000
      2       4.8897     -0.00000
      3       4.8897     -0.00000
      4       5.1761     -0.00000
      5       5.1761     -0.00000

 k-point     2 :       0.0769    0.0000    0.0000
  band No.  band energies     occupation 
      1      -2.6334      2.00000
      2       4.0360     -0.00000
      3       4.9380     -0.00000
      4       5.2184     -0.00000
      5       5.2184     -0.00000

 k-point     3 :       0.1538    0.0000    0.0000
  band No.  band energies     occupation 
      1      -2.4840      2.00000
      2       3.0502     -0.00000
      3       5.0832     -0.00000
      4       5.3453     -0.00000
      5       5.3453     -0.00000

 k-point     4 :       0.2308    0.0000    0.0000
  band No.  band energies     occupation 
      1      -2.2357      2.00000
      2       2.1070     -0.00000
      3       5.3250     -0.00000
      4       5.5572     -0.00000
      5       5.5572     -0.00000

 k-point     5 :       0.3077    0.0000    0.0000
  band No.  band energies     occupation 
      1      -1.8898      2.00000
      2       1.2303     -0.00000
      3       5.6636     -0.00000
      4       5.8544     -0.00000
      5       5.8544     -0.00000

 k-point     6 :       0.3846    0.0000    0.0000
  band No.  band energies     occupation 
      1      -1.4478      2.00000
      2       0.4310      1.44069
      3       6.0988      0.00000
      4       6.2375      0.00000
      5       6.2375      0.00000

 k-point     7 :       0.4615    0.0000    0.0000
  band No.  band energies     occupation 
      1      -0.9118      2.00000
      2      -0.2845      2.00000
      3       6.6306      0.00000
      4       6.7070      0.00000
      5       6.7070      0.00000

 k-point     8 :       0.0769    0.0769    0.0000
  band No.  band energies     occupation 
      1      -2.5836      2.00000
      2       3.9335     -0.00000
      3       4.2840     -0.00000
      4       5.2607     -0.00000
      5       5.5772     -0.00000

 k-point     9 :       0.1538    0.0769    0.0000
  band No.  band energies     occupation 
      1      -2.4343      2.00000
      2       3.0819     -0.00000
      3       4.2929     -0.00000
      4       5.3876     -0.00000
      5       5.7722     -0.00000

 k-point    10 :       0.2308    0.0769    0.0000
  band No.  band energies     occupation 
      1      -2.1862      2.00000
      2       2.1498     -0.00000
      3       4.5110     -0.00000
      4       5.5994     -0.00000
      5       6.0202      0.00000

 k-point    11 :       0.3077    0.0769    0.0000
  band No.  band energies     occupation 
      1      -1.8405      2.00000
      2       1.2761     -0.00000
      3       4.8277     -0.00000
      4       5.8966     -0.00000
      5       6.3550      0.00000

 k-point    12 :       0.3846    0.0769    0.0000
  band No.  band energies     occupation 
      1      -1.3989      2.00000
      2       0.4782      1.05980
      3       5.2368     -0.00000
      4       6.2796      0.00000
      5       6.7806      0.00000

 k-point    13 :       0.4615    0.0769    0.0000
  band No.  band energies     occupation 
      1      -0.8634      2.00000
      2      -0.2366      2.00000
      3       5.7369     -0.00000
      4       6.3268      0.00000
      5       6.7490      0.00000

 k-point    14 :       0.1538    0.1538    0.0000
  band No.  band energies     occupation 
      1      -2.2853      2.00000
      2       3.0320     -0.00000
      3       3.4995     -0.00000
      4       5.5145     -0.00000
      5       6.0255      0.00000

 k-point    15 :       0.2308    0.1538    0.0000
  band No.  band energies     occupation 
      1      -2.0378      2.00000
      2       2.2697     -0.00000
      3       3.5477     -0.00000
      4       5.7263     -0.00000
      5       6.2986      0.00000

 k-point    16 :       0.3077    0.1538    0.0000
  band No.  band energies     occupation 
      1      -1.6930      2.00000
      2       1.4121     -0.00000
      3       3.8497     -0.00000
      4       6.0233      0.00000
      5       6.6507      0.00000

 k-point    17 :       0.3846    0.1538    0.0000
  band No.  band energies     occupation 
      1      -1.2524      2.00000
      2       0.6191      0.10267
      3       4.2564     -0.00000
      4       6.4061      0.00000
      5       7.0915      0.00000

 k-point    18 :       0.4615    0.1538    0.0000
  band No.  band energies     occupation 
      1      -0.7182      2.00000
      2      -0.0931      2.00034
      3       4.7570     -0.00000
      4       5.3484     -0.00000
      5       6.8750      0.00000

 k-point    19 :       0.2308    0.2308    0.0000
  band No.  band energies     occupation 
      1      -1.7913      2.00000
      2       2.3111     -0.00000
      3       2.7942     -0.00000
      4       5.9379     -0.00000
      5       6.7204      0.00000

 k-point    20 :       0.3077    0.2308    0.0000
  band No.  band energies     occupation 
      1      -1.4478      2.00000
      2       1.6282     -0.00000
      3       2.9251     -0.00000
      4       5.8685     -0.00000
      5       6.2347      0.00000

 k-point    21 :       0.3846    0.2308    0.0000
  band No.  band energies     occupation 
      1      -1.0090      2.00000
      2       0.8515     -0.02651
      3       3.3204     -0.00000
      4       5.0986     -0.00000
      5       6.6168      0.00000

 k-point    22 :       0.4615    0.2308    0.0000
  band No.  band energies     occupation 
      1      -0.4771      2.00000
      2       0.1448      2.03692
      3       3.8210     -0.00000
      4       7.0843      0.00000
      5       7.9121      0.00000

 k-point    23 :       0.3077    0.3077    0.0000
  band No.  band energies     occupation 
      1      -1.1063      2.00000
      2       1.7716     -0.00000
      3       2.2349     -0.00000
      4       6.5307      0.00000
      5       7.2969      0.00000

 k-point    24 :       0.3846    0.3077    0.0000
  band No.  band energies     occupation 
      1      -0.6700      2.00000
      2       1.1658     -0.00002
      3       2.4654     -0.00000
      4       6.9113      0.00000
      5       7.7377      0.00000

 k-point    25 :       0.4615    0.3077    0.0000
  band No.  band energies     occupation 
      1      -0.1416      2.00009
      2       0.4746      1.08967
      3       2.9575     -0.00000
      4       3.5530     -0.00000
      5       7.3754      0.00000

 k-point    26 :       0.3846    0.3846    0.0000
  band No.  band energies     occupation 
      1      -0.2374      2.00000
      2       1.4125     -0.00000
      3       1.8507     -0.00000
      4       3.4627     -0.00000
      5       7.2883      0.00000

 k-point    27 :       0.4615    0.3846    0.0000
  band No.  band energies     occupation 
      1       0.2852      2.05025
      2       0.8868     -0.01559
      3       2.1851     -0.00000
      4       2.7738     -0.00000
      5       7.7429      0.00000

 k-point    28 :       0.4615    0.4615    0.0000
  band No.  band energies     occupation 
      1       0.7935     -0.05156
      2       1.2332     -0.00000
      3       1.6556     -0.00000
      4       2.0910     -0.00000
      5       8.1632      0.00000

 k-point    29 :       0.0769    0.0769    0.0769
  band No.  band energies     occupation 
      1      -2.5338      2.00000
      2       3.9790     -0.00000
      3       3.9790     -0.00000
      4       4.7750     -0.00000
      5       6.3636      0.00000

 k-point    30 :       0.1538    0.0769    0.0769
  band No.  band energies     occupation 
      1      -2.3846      2.00000
      2       3.1158     -0.00000
      3       4.1156     -0.00000
      4       4.7824     -0.00000
      5       6.4991      0.00000

 k-point    31 :       0.2308    0.0769    0.0769
  band No.  band energies     occupation 
      1      -2.1367      2.00000
      2       2.1927     -0.00000
      3       4.3431     -0.00000
      4       4.9843     -0.00000
      5       6.7252      0.00000

 k-point    32 :       0.3077    0.0769    0.0769
  band No.  band energies     occupation 
      1      -1.7913      2.00000
      2       1.3219     -0.00000
      3       4.6618     -0.00000
      4       5.2914     -0.00000
      5       7.0423      0.00000

 k-point    33 :       0.3846    0.0769    0.0769
  band No.  band energies     occupation 
      1      -1.3500      2.00000
      2       0.5252      0.66871
      3       5.0714     -0.00000
      4       5.6909     -0.00000
      5       6.8458      0.00000

 k-point    34 :       0.4615    0.0769    0.0769
  band No.  band energies     occupation 
      1      -0.8149      2.00000
      2      -0.1887      2.00002
      3       5.5721     -0.00000
      4       6.1636      0.00000
      5       6.1784      0.00000

 k-point    35 :       0.1538    0.1538    0.0769
  band No.  band energies     occupation 
      1      -2.2357      2.00000
      2       3.0772     -0.00000
      3       3.4891     -0.00000
      4       4.7206     -0.00000
      5       6.9078      0.00000

 k-point    36 :       0.2308    0.1538    0.0769
  band No.  band energies     occupation 
      1      -1.9884      2.00000
      2       2.3129     -0.00000
      3       3.5621     -0.00000
      4       4.9172     -0.00000
      5       7.1801      0.00000

 k-point    37 :       0.3077    0.1538    0.0769
  band No.  band energies     occupation 
      1      -1.6439      2.00000
      2       1.4577     -0.00000
      3       3.8669     -0.00000
      4       5.2253     -0.00000
      5       6.8118      0.00000

 k-point    38 :       0.3846    0.1538    0.0769
  band No.  band energies     occupation 
      1      -1.2036      2.00000
      2       0.6660     -0.02410
      3       4.2736     -0.00000
      4       5.6276     -0.00000
      5       6.0446      0.00000

 k-point    39 :       0.4615    0.1538    0.0769
  band No.  band energies     occupation 
      1      -0.6699      2.00000
      2      -0.0454      2.00114
      3       4.7736     -0.00000
      4       5.3645     -0.00000
      5       6.1187      0.00000

 k-point    40 :       0.2308    0.2308    0.0769
  band No.  band energies     occupation 
      1      -1.7421      2.00000
      2       2.3561     -0.00000
      3       2.8282     -0.00000
      4       5.1142     -0.00000
      5       6.7514      0.00000

 k-point    41 :       0.3077    0.2308    0.0769
  band No.  band energies     occupation 
      1      -1.3989      2.00000
      2       1.6735     -0.00000
      3       2.9636     -0.00000
      4       5.4216     -0.00000
      5       5.9031     -0.00000

 k-point    42 :       0.3846    0.2308    0.0769
  band No.  band energies     occupation 
      1      -0.9605      2.00000
      2       0.8981     -0.01291
      3       3.3590     -0.00000
      4       5.1348     -0.00000
      5       5.8225     -0.00000

 k-point    43 :       0.4615    0.2308    0.0769
  band No.  band energies     occupation 
      1      -0.4290      2.00000
      2       0.1923      2.05839
      3       3.8591     -0.00000
      4       4.4523     -0.00000
      5       6.3114      0.00000

 k-point    44 :       0.3077    0.3077    0.0769
  band No.  band energies     occupation 
      1      -1.0576      2.00000
      2       1.8164     -0.00000
      3       2.2788     -0.00000
      4       5.0529     -0.00000
      5       5.7271     -0.00000

 k-point    45 :       0.3846    0.3077    0.0769
  band No.  band energies     occupation 
      1      -0.6218      2.00000
      2       1.2119     -0.00000
      3       2.5096     -0.00000
      4       4.2813     -0.00000
      5       6.1245      0.00000

 k-point    46 :       0.4615    0.3077    0.0769
  band No.  band energies     occupation 
      1      -0.0939      2.00033
      2       0.5217      0.69706
      3       3.0010     -0.00000
      4       3.5956     -0.00000
      5       6.6073      0.00000

 k-point    47 :       0.3846    0.3846    0.0769
  band No.  band energies     occupation 
      1      -0.1896      2.00002
      2       1.4573     -0.00000
      3       1.8978     -0.00000
      4       3.5064     -0.00000
      5       6.5155      0.00000

 k-point    48 :       0.4615    0.3846    0.0769
  band No.  band energies     occupation 
      1       0.3325      1.96028
      2       0.9332     -0.00684
      3       2.2310     -0.00000
      4       2.8187     -0.00000
      5       6.9841      0.00000

 k-point    49 :       0.4615    0.4615    0.0769
  band No.  band energies     occupation 
      1       0.8400     -0.03092
      2       1.2779     -0.00000
      3       1.7037     -0.00000
      4       2.1373     -0.00000
      5       7.4083      0.00000

 k-point    50 :       0.1538    0.1538    0.1538
  band No.  band energies     occupation 
      1      -2.0872      2.00000
      2       3.2127     -0.00000
      3       3.2127     -0.00000
      4       4.1220     -0.00000
      5       8.5142      0.00000

 k-point    51 :       0.2308    0.1538    0.1538
  band No.  band energies     occupation 
      1      -1.8405      2.00000
      2       2.4356     -0.00000
      3       3.4388     -0.00000
      4       4.1757     -0.00000
      5       7.5661      0.00000

 k-point    52 :       0.3077    0.1538    0.1538
  band No.  band energies     occupation 
      1      -1.4968      2.00000
      2       1.5930     -0.00000
      3       3.7555     -0.00000
      4       4.4617     -0.00000
      5       6.7042      0.00000

 k-point    53 :       0.3846    0.1538    0.1538
  band No.  band energies     occupation 
      1      -1.0576      2.00000
      2       0.8062     -0.04568
      3       4.1630     -0.00000
      4       4.8633     -0.00000
      5       6.5998      0.00000

 k-point    54 :       0.4615    0.1538    0.1538
  band No.  band energies     occupation 
      1      -0.5252      2.00000
      2       0.0975      2.01939
      3       4.6615     -0.00000
      4       5.3596     -0.00000
      5       5.9414     -0.00000

 k-point    55 :       0.2308    0.2308    0.1538
  band No.  band energies     occupation 
      1      -1.5948      2.00000
      2       2.4911     -0.00000
      3       2.8971     -0.00000
      4       4.1646     -0.00000
      5       6.8265      0.00000

 k-point    56 :       0.3077    0.2308    0.1538
  band No.  band energies     occupation 
      1      -1.2524      2.00000
      2       1.8081     -0.00000
      3       3.0616     -0.00000
      4       4.4454     -0.00000
      5       5.9920      0.00000

 k-point    57 :       0.3846    0.2308    0.1538
  band No.  band energies     occupation 
      1      -0.8151      2.00000
      2       1.0374     -0.00067
      3       3.4586     -0.00000
      4       4.8449     -0.00000
      5       5.2275     -0.00000

 k-point    58 :       0.4615    0.2308    0.1538
  band No.  band energies     occupation 
      1      -0.2850      2.00000
      2       0.3344      1.95481
      3       3.9570     -0.00000
      4       4.5477     -0.00000
      5       5.3388     -0.00000

 k-point    59 :       0.3077    0.3077    0.1538
  band No.  band energies     occupation 
      1      -0.9120      2.00000
      2       1.9510     -0.00000
      3       2.4042     -0.00000
      4       4.7251     -0.00000
      5       5.1662     -0.00000

 k-point    60 :       0.3846    0.3077    0.1538
  band No.  band energies     occupation 
      1      -0.4773      2.00000
      2       1.3496     -0.00000
      3       2.6384     -0.00000
      4       4.4020     -0.00000
      5       5.1207     -0.00000

 k-point    61 :       0.4615    0.3077    0.1538
  band No.  band energies     occupation 
      1       0.0491      2.00855
      2       0.6626     -0.01804
      3       3.1282     -0.00000
      4       3.7201     -0.00000
      5       5.6075     -0.00000

 k-point    62 :       0.3846    0.3846    0.1538
  band No.  band energies     occupation 
      1      -0.0463      2.00111
      2       1.5916     -0.00000
      3       2.0367     -0.00000
      4       3.6354     -0.00000
      5       5.5089     -0.00000

 k-point    63 :       0.4615    0.3846    0.1538
  band No.  band energies     occupation 
      1       0.4740      1.09452
      2       1.0720     -0.00027
      3       2.3673     -0.00000
      4       2.9520     -0.00000
      5       5.9800      0.00000

 k-point    64 :       0.4615    0.4615    0.1538
  band No.  band energies     occupation 
      1       0.9792     -0.00265
      2       1.4122     -0.00000
      3       1.8467     -0.00000
      4       2.2753     -0.00000
      5       6.4030      0.00000

 k-point    65 :       0.2308    0.2308    0.2308
  band No.  band energies     occupation 
      1      -1.3501      2.00000
      2       2.7162     -0.00000
      3       2.7162     -0.00000
      4       3.6228     -0.00000
      5       6.8351      0.00000

 k-point    66 :       0.3077    0.2308    0.2308
  band No.  band energies     occupation 
      1      -1.0091      2.00000
      2       2.0238     -0.00000
      3       3.0317     -0.00000
      4       3.7641     -0.00000
      5       6.4768      0.00000

 k-point    67 :       0.3846    0.2308    0.2308
  band No.  band energies     occupation 
      1      -0.5736      2.00000
      2       1.2670     -0.00000
      3       3.4379     -0.00000
      4       4.1436     -0.00000
      5       5.8508     -0.00000

 k-point    68 :       0.4615    0.2308    0.2308
  band No.  band energies     occupation 
      1      -0.0460      2.00112
      2       0.5699      0.34961
      3       3.9349     -0.00000
      4       4.6359     -0.00000
      5       5.2133     -0.00000

 k-point    69 :       0.3077    0.3077    0.2308
  band No.  band energies     occupation 
      1      -0.6701      2.00000
      2       2.1755     -0.00000
      3       2.5711     -0.00000
      4       3.8400     -0.00000
      5       5.3282     -0.00000

 k-point    70 :       0.3846    0.3077    0.2308
  band No.  band energies     occupation 
      1      -0.2374      2.00000
      2       1.5769     -0.00000
      3       2.8298     -0.00000
      4       4.2112     -0.00000
      5       4.5817     -0.00000

 k-point    71 :       0.4615    0.3077    0.2308
  band No.  band energies     occupation 
      1       0.2864      2.04899
      2       0.8961     -0.01337
      3       3.3186     -0.00000
      4       3.9063     -0.00000
      5       4.6955     -0.00000

 k-point    72 :       0.3846    0.3846    0.2308
  band No.  band energies     occupation 
      1       0.1915      2.05805
      2       1.8158     -0.00000
      3       2.2581     -0.00000
      4       3.8422     -0.00000
      5       4.5753     -0.00000

 k-point    73 :       0.4615    0.3846    0.2308
  band No.  band energies     occupation 
      1       0.7089     -0.06690
      2       1.3023     -0.00000
      3       2.5881     -0.00000
      4       3.1677     -0.00000
      5       5.0431     -0.00000

 k-point    74 :       0.4615    0.4615    0.2308
  band No.  band energies     occupation 
      1       1.2101     -0.00000
      2       1.6361     -0.00000
      3       2.0799     -0.00000
      4       2.5012     -0.00000
      5       5.4611     -0.00000

 k-point    75 :       0.3077    0.3077    0.3077
  band No.  band energies     occupation 
      1      -0.3332      2.00000
      2       2.4902     -0.00000
      3       2.4902     -0.00000
      4       3.3756     -0.00000
      5       5.4268     -0.00000

 k-point    76 :       0.3846    0.3077    0.3077
  band No.  band energies     occupation 
      1       0.0967      2.01915
      2       1.8851     -0.00000
      3       2.8954     -0.00000
      4       3.6091     -0.00000
      5       5.1607     -0.00000

 k-point    77 :       0.4615    0.3077    0.3077
  band No.  band energies     occupation 
      1       0.6163      0.11323
      2       1.2193     -0.00000
      3       3.3913     -0.00000
      4       4.0712     -0.00000
      5       4.6194     -0.00000

 k-point    78 :       0.3846    0.3846    0.3077
  band No.  band energies     occupation 
      1       0.5224      0.69153
      2       2.1299     -0.00000
      3       2.5204     -0.00000
      4       3.7729     -0.00000
      5       4.1000     -0.00000

 k-point    79 :       0.4615    0.3846    0.3077
  band No.  band energies     occupation 
      1       1.0352     -0.00071
      2       1.6214     -0.00000
      3       2.8703     -0.00000
      4       3.4445     -0.00000
      5       4.2157     -0.00000

 k-point    80 :       0.4615    0.4615    0.3077
  band No.  band energies     occupation 
      1       1.5311     -0.00000
      2       1.9499     -0.00000
      3       2.3909     -0.00000
      4       2.8053     -0.00000
      5       4.6097     -0.00000

 k-point    81 :       0.3846    0.3846    0.3846
  band No.  band energies     occupation 
      1       0.9435     -0.00558
      2       2.5344     -0.00000
      3       2.5344     -0.00000
      4       3.3882     -0.00000
      5       4.2936     -0.00000

 k-point    82 :       0.4615    0.3846    0.3846
  band No.  band energies     occupation 
      1       1.4491     -0.00000
      2       2.0199     -0.00000
      3       3.0296     -0.00000
      4       3.6836     -0.00000
      5       4.1155     -0.00000

 k-point    83 :       0.4615    0.4615    0.3846
  band No.  band energies     occupation 
      1       1.9378     -0.00000
      2       2.3541     -0.00000
      3       2.7367     -0.00000
      4       3.1566     -0.00000
      5       3.8770     -0.00000

 k-point    84 :       0.4615    0.4615    0.4615
  band No.  band energies     occupation 
      1       2.4157     -0.00000
      2       2.8489     -0.00000
      3       2.8489     -0.00000
      4       3.4349     -0.00000
      5       3.4638     -0.00000


--------------------------------------------------------------------------------------------------------


 soft charge-density along one line, spin component           1
         0         1         2         3         4         5         6         7         8         9
 total charge-density along one line

 pseudopotential strength for first ion, spin component:           1
  2.182   0.009   0.000   0.000   0.000   0.000   0.000   0.000
  0.009   0.092  -0.000  -0.000  -0.000   0.000   0.000   0.000
  0.000  -0.000   4.122  -0.000  -0.000  -0.243  -0.000  -0.000
  0.000  -0.000  -0.000   4.122  -0.000  -0.000  -0.243  -0.000
  0.000  -0.000  -0.000  -0.000   4.122  -0.000  -0.000  -0.243
  0.000   0.000  -0.243  -0.000  -0.000  -1.092   0.000   0.000
  0.000   0.000  -0.000  -0.243  -0.000   0.000  -1.092   0.000
  0.000   0.000  -0.000  -0.000  -0.243   0.000   0.000  -1.092
 total augmentation occupancy for first ion, spin component:           1
  0.848   0.046  -0.000   0.000   0.000  -0.000  -0.000  -0.000
  0.046   0.003   0.000   0.000   0.000  -0.000  -0.000   0.000
  0.000   0.000   0.026   0.000   0.000   0.002  -0.000   0.000
  0.000   0.000   0.000   0.026   0.000  -0.000   0.002   0.000
  0.000   0.000   0.000   0.000   0.026   0.000   0.000   0.002
 -0.000   0.000   0.002   0.000   0.000   0.000  -0.000  -0.000
 -0.000   0.000  -0.000   0.002  -0.000  -0.000   0.000   0.000
  0.000   0.000  -0.000   0.000   0.002  -0.000   0.000   0.000


------------------------ aborting loop because EDIFF is reached ----------------------------------------


    CHARGE:  cpu time    0.1040: real time    0.1041
    FORLOC:  cpu time    0.0022: real time    0.0023
    FORNL :  cpu time    0.1166: real time    0.1168
    STRESS:  cpu time    0.7094: real time    0.7104
    FORCOR:  cpu time    0.0680: real time    0.0681
    FORHAR:  cpu time    0.0126: real time    0.0126
    MIXING:  cpu time    0.0016: real time    0.0016
    OFIELD:  cpu time    0.0000: real time    0.0000

  FORCE on cell =-STRESS in cart. coord.  units (eV):
  Direction    XX          YY          ZZ          XY          YZ          ZX
  --------------------------------------------------------------------------------------
  Alpha Z    -1.05628    -1.05628    -1.05628
  Ewald      -4.07942    -4.07942    -4.07942    -0.00000    -0.00000     0.00000
  Hartree     0.00918     0.00918     0.00918    -0.00000    -0.00000    -0.00000
  E(xc)      -3.48787    -3.48787    -3.48787    -0.00000    -0.00000    -0.00000
  Local       0.64080     0.64080     0.64080     0.00000     0.00000    -0.00000
  n-local     5.29535     5.33192     5.32979    -0.00385    -0.00458    -0.00458
  augment    -0.23605    -0.23605    -0.23605     0.00000     0.00000     0.00000
  Kinetic     5.42279     1.99245     0.68301     1.85557     0.76599     0.84527
  Fock        0.00000     0.00000     0.00000     0.00000     0.00000     0.00000
  -------------------------------------------------------------------------------------
  Total      -0.19119    -0.19119    -0.19119     0.00000    -0.00000    -0.00000
  in kB      -3.90157    -3.90157    -3.90157     0.00000    -0.00000    -0.00000
  external pressure =       -3.90 kB  Pullay stress =        0.00 kB


 VOLUME and BASIS-vectors are now :
 -----------------------------------------------------------------------------
  energy-cutoff  :      500.00
  volume of cell :       78.51
      direct lattice vectors                 reciprocal lattice vectors
     4.282000065  0.000000000  0.000000000     0.233535727  0.000000000  0.000000000
     0.000000000  4.282000065  0.000000000     0.000000000  0.233535727  0.000000000
     0.000000000  0.000000000  4.282000065     0.000000000  0.000000000  0.233535727

  length of vectors
     4.282000065  4.282000065  4.282000065     0.233535727  0.233535727  0.233535727


 FORCES acting on ions
    electron-ion (+dipol)            ewald-force                    non-local-force                 convergence-correction
 -----------------------------------------------------------------------------------------------
   -.340E-11 -.340E-11 -.340E-11   -.307E-09 -.307E-09 -.307E-09   0.156E-24 -.504E-24 0.236E-24   0.994E-13 0.994E-13 0.994E-13
   -.752E-09 -.752E-09 -.752E-09   0.307E-09 0.307E-09 0.307E-09   0.232E-24 -.615E-24 0.141E-24   -.218E-12 -.218E-12 -.218E-12
 -----------------------------------------------------------------------------------------------
   -.756E-09 -.756E-09 -.756E-09   0.108E-16 0.436E-17 0.174E-18   0.388E-24 -.112E-23 0.377E-24   -.118E-12 -.118E-12 -.118E-12


 POSITION                                       TOTAL-FORCE (eV/Angst)
 -----------------------------------------------------------------------------------
      0.00000      0.00000      0.00000        -0.000000     -0.000000      0.000000
      2.14100      2.14100      2.14100         0.000000      0.000000     -0.000000
 -----------------------------------------------------------------------------------
    total drift:                               -0.000000     -0.000000     -0.000000


--------------------------------------------------------------------------------------------------------



  FREE ENERGIE OF THE ION-ELECTRON SYSTEM (eV)
  ---------------------------------------------------
  free  energy   TOTEN  =        -2.60391485 eV

  energy  without entropy=       -2.60300394  energy(sigma->0) =       -2.60361121



--------------------------------------------------------------------------------------------------------


    POTLOK:  cpu time    0.0688: real time    0.0689


--------------------------------------------------------------------------------------------------------




--------------------------------------------------------------------------------------------------------


    WAVPRE:  cpu time    0.0858: real time    3.7187
    FEWALD:  cpu time    0.0001: real time    0.0001
    GENKIN:  cpu time    0.0125: real time    0.0125
    ORTHCH:  cpu time    0.0221: real time    0.0221
     LOOP+:  cpu time    5.9494: real time   10.1913


--------------------------------------- Iteration      2(   1)  ---------------------------------------


    POTLOK:  cpu time    0.0704: real time    0.0705
    SETDIJ:  cpu time    0.0035: real time    0.0035
     EDDAV:  cpu time    0.9228: real time    0.9250
       DOS:  cpu time    0.0019: real time    0.0019
    CHARGE:  cpu time    0.1014: real time    0.1017
    MIXING:  cpu time    0.0015: real time    0.0015
    --------------------------------------------
      LOOP:  cpu time    1.1015: real time    1.1041

 eigenvalue-minimisations  :   980
 total energy-change (2. order) :-0.2253305E-02  (-0.7779698E-04)
 number of electron       2.0000000 magnetization 
 augmentation part       -0.0225871 magnetization 

 Broyden mixing:
  rms(total) = 0.77848E-03    rms(broyden)= 0.77848E-03
  rms(prec ) = 0.23323E-02
  weight for this iteration     100.00

 Free energy of the ion-electron system (eV)
  ---------------------------------------------------
  alpha Z        PSCENC =        -1.07102507
  Ewald energy   TEWEN  =       -12.29495185
  -Hartree energ DENC   =        -0.02748834
  -exchange      EXHF   =         0.00000000
  -V(xc)+E(xc)   XCENC  =       -19.66260615
  PAW double counting   =        21.78135279       -0.23848912
  entropy T*S    EENTRO =        -0.00090133
  eigenvalues    EBANDS =        -1.48246578
  atomic energy  EATOM  =        10.39039485
  Solvation  Ediel_sol  =         0.00000000
  ---------------------------------------------------
  free energy    TOTEN  =        -2.60618000 eV

  energy without entropy =       -2.60527867  energy(sigma->0) =       -2.60587956


--------------------------------------------------------------------------------------------------------




--------------------------------------- Iteration      2(   2)  ---------------------------------------


    POTLOK:  cpu time    0.0654: real time    0.0655
    SETDIJ:  cpu time    0.0035: real time    0.0035
     EDDAV:  cpu time    0.5581: real time    0.5596
       DOS:  cpu time    0.0020: real time    0.0020
    --------------------------------------------
      LOOP:  cpu time    0.6290: real time    0.6305

 eigenvalue-minimisations  :   435
 total energy-change (2. order) : 0.2925568E-06  (-0.2083846E-06)
 number of electron       2.0000000 magnetization 
 augmentation part       -0.0225871 magnetization 

 Free energy of the ion-electron system (eV)
  ---------------------------------------------------
  alpha Z        PSCENC =        -1.07102507
  Ewald energy   TEWEN  =       -12.29495185
  -Hartree energ DENC   =        -0.02778402
  -exchange      EXHF   =         0.00000000
  -V(xc)+E(xc)   XCENC  =       -19.66178685
  PAW double counting   =        21.78416629       -0.24174129
  entropy T*S    EENTRO =        -0.00090123
  eigenvalues    EBANDS =        -1.48255056
  atomic energy  EATOM  =        10.39039485
  Solvation  Ediel_sol  =         0.00000000
  ---------------------------------------------------
  free energy    TOTEN  =        -2.60617971 eV

  energy without entropy =       -2.60527848  energy(sigma->0) =       -2.60587930


--------------------------------------------------------------------------------------------------------




 average (electrostatic) potential at core
  the test charge radii are     1.3586
  (the norm of the test charge is              1.0000)
       1 -31.9735       2 -31.9735



 E-fermi :   0.5257     XC(G=0):  -5.9346     alpha+bet : -4.8692

 Fermi energy:         0.5256666539

 k-point     1 :       0.0000    0.0000    0.0000
  band No.  band energies     occupation 
      1      -2.6715      2.00000
      2       4.9532     -0.00000
      3       4.9532     -0.00000
      4       5.2613     -0.00000
      5       5.2613     -0.00000

 k-point     2 :       0.0769    0.0000    0.0000
  band No.  band energies     occupation 
      1      -2.6211      2.00000
      2       4.1021     -0.00000
      3       5.0020     -0.00000
      4       5.3038     -0.00000
      5       5.3038     -0.00000

 k-point     3 :       0.1538    0.0000    0.0000
  band No.  band energies     occupation 
      1      -2.4703      2.00000
[...]
      1      -1.9062      2.00000
      2       2.5398     -0.00000
      3       3.8344     -0.00000
      4       5.2668     -0.00000
      5       7.5745      0.00000

 k-point    37 :       0.3077    0.1538    0.0769
  band No.  band energies     occupation 
      1      -1.5486      2.00000
      2       1.6605     -0.00000
      3       4.1478     -0.00000
      4       5.5829     -0.00000
      5       7.1889      0.00000

 k-point    38 :       0.3846    0.1538    0.0769
  band No.  band energies     occupation 
      1      -1.0919      2.00000
      2       0.8434     -0.03343
      3       4.5674     -0.00000
      4       5.9967     -0.00000
      5       6.3965      0.00000

 k-point    39 :       0.4615    0.1538    0.0769
  band No.  band energies     occupation 
      1      -0.5387      2.00000
      2       0.1079      2.00072
      3       5.0837     -0.00000
      4       5.6940     -0.00000
      5       6.5021      0.00000

 k-point    40 :       0.2308    0.2308    0.0769
  band No.  band energies     occupation 
      1      -1.6505      2.00000
      2       2.5749     -0.00000
      3       3.0933     -0.00000
      4       5.4653     -0.00000
      5       7.1300      0.00000

 k-point    41 :       0.3077    0.2308    0.0769
  band No.  band energies     occupation 
      1      -1.2944      2.00000
      2       1.8809     -0.00000
      3       3.2245     -0.00000
      4       5.7807     -0.00000
      5       6.2553      0.00000

 k-point    42 :       0.3846    0.2308    0.0769
  band No.  band energies     occupation 
      1      -0.8398      2.00000
      2       1.0828     -0.01027
      3       3.6302     -0.00000
      4       5.4625     -0.00000
      5       6.1930      0.00000

 k-point    43 :       0.4615    0.2308    0.0769
  band No.  band energies     occupation 
      1      -0.2892      2.00000
      2       0.3537      2.05390
      3       4.1459     -0.00000
      4       4.7581     -0.00000
      5       6.6958      0.00000

 k-point    44 :       0.3077    0.3077    0.0769
  band No.  band energies     occupation 
      1      -0.9405      2.00000
      2       2.0186     -0.00000
      3       2.5295     -0.00000
      4       5.3792     -0.00000
      5       6.0938     -0.00000

 k-point    45 :       0.3846    0.3077    0.0769
  band No.  band energies     occupation 
      1      -0.4889      2.00000
      2       1.4049     -0.00000
      3       2.7577     -0.00000
      4       4.5834     -0.00000
      5       6.5020      0.00000

 k-point    46 :       0.4615    0.3077    0.0769
  band No.  band energies     occupation 
      1       0.0576      2.00019
      2       0.6939      0.69188
      3       3.2627     -0.00000
      4       3.8759     -0.00000
      5       6.9973      0.00000

 k-point    47 :       0.3846    0.3846    0.0769
  band No.  band energies     occupation 
      1      -0.0414      2.00001
      2       1.6485     -0.00000
      3       2.1365     -0.00000
      4       3.7842     -0.00000
      5       6.9023      0.00000

 k-point    48 :       0.4615    0.3846    0.0769
  band No.  band energies     occupation 
      1       0.4984      1.97601
      2       1.1173     -0.00534
      3       2.4703     -0.00000
      4       3.0750     -0.00000
      5       7.3803      0.00000

 k-point    49 :       0.4615    0.4615    0.0769
  band No.  band energies     occupation 
      1       1.0211     -0.02722
      2       1.4636     -0.00000
      3       1.9359     -0.00000
      4       2.3736     -0.00000
      5       7.8055      0.00000

 k-point    50 :       0.1538    0.1538    0.1538
  band No.  band energies     occupation 
      1      -2.0088      2.00000
      2       3.4581     -0.00000
      3       3.4581     -0.00000
      4       4.4732     -0.00000
      5       8.3688      0.00000

 k-point    51 :       0.2308    0.1538    0.1538
  band No.  band energies     occupation 
      1      -1.7527      2.00000
      2       2.6647     -0.00000
      3       3.6916     -0.00000
      4       4.5213     -0.00000
      5       7.9561      0.00000

 k-point    52 :       0.3077    0.1538    0.1538
  band No.  band energies     occupation 
      1      -1.3959      2.00000
      2       1.7995     -0.00000
      3       4.0187     -0.00000
      4       4.8116     -0.00000
      5       7.0654      0.00000

 k-point    53 :       0.3846    0.1538    0.1538
  band No.  band energies     occupation 
      1      -0.9405      2.00000
      2       0.9882     -0.04094
      3       4.4396     -0.00000
      4       5.2237     -0.00000
      5       7.0067      0.00000

 k-point    54 :       0.4615    0.1538    0.1538
  band No.  band energies     occupation 
      1      -0.3889      2.00000
      2       0.2557      2.01570
      3       4.9546     -0.00000
      4       5.7339     -0.00000
      5       6.3317      0.00000

 k-point    55 :       0.2308    0.2308    0.1538
  band No.  band energies     occupation 
      1      -1.4977      2.00000
      2       2.7142     -0.00000
      3       3.1530     -0.00000
      4       4.4982     -0.00000
      5       7.2004      0.00000

 k-point    56 :       0.3077    0.2308    0.1538
  band No.  band energies     occupation 
      1      -1.1425      2.00000
      2       2.0194     -0.00000
      3       3.3187     -0.00000
      4       4.7816     -0.00000
      5       6.3409      0.00000

 k-point    57 :       0.3846    0.2308    0.1538
  band No.  band energies     occupation 
      1      -0.6891      2.00000
      2       1.2265     -0.00043
      3       3.7270     -0.00000
      4       5.1912     -0.00000
      5       5.5521     -0.00000

 k-point    58 :       0.4615    0.2308    0.1538
  band No.  band energies     occupation 
      1      -0.1402      2.00000
      2       0.5006      1.97015
      3       4.2410     -0.00000
      4       4.8505     -0.00000
      5       5.6989     -0.00000

 k-point    59 :       0.3077    0.3077    0.1538
  band No.  band energies     occupation 
      1      -0.7896      2.00000
      2       2.1574     -0.00000
      3       2.6558     -0.00000
      4       5.0637     -0.00000
      5       5.4928     -0.00000

 k-point    60 :       0.3846    0.3077    0.1538
  band No.  band energies     occupation 
      1      -0.3392      2.00000
      2       1.5468     -0.00000
      3       2.8886     -0.00000
      4       4.7053     -0.00000
      5       5.4689     -0.00000

 k-point    61 :       0.4615    0.3077    0.1538
  band No.  band energies     occupation 
      1       0.2055      2.00641
      2       0.8394     -0.02719
      3       3.3919     -0.00000
      4       4.0022     -0.00000
      5       5.9682     -0.00000

 k-point    62 :       0.3846    0.3846    0.1538
  band No.  band energies     occupation 
      1       0.1068      2.00071
      2       1.7870     -0.00000
      3       2.2789     -0.00000
      4       3.9159     -0.00000
      5       5.8653     -0.00000

 k-point    63 :       0.4615    0.3846    0.1538
  band No.  band energies     occupation 
      1       0.6446      1.10286
      2       1.2605     -0.00017
      3       2.6102     -0.00000
      4       3.2115     -0.00000
      5       6.3458      0.00000

 k-point    64 :       0.4615    0.4615    0.1538
  band No.  band energies     occupation 
      1       1.1647     -0.00194
      2       1.6020     -0.00000
      3       2.0832     -0.00000
      4       2.5155     -0.00000
      5       6.7695      0.00000

 k-point    65 :       0.2308    0.2308    0.2308
  band No.  band energies     occupation 
      1      -1.2438      2.00000
      2       2.9465     -0.00000
      3       2.9465     -0.00000
      4       3.9592     -0.00000
      5       7.2000      0.00000

 k-point    66 :       0.3077    0.2308    0.2308
  band No.  band energies     occupation 
      1      -0.8902      2.00000
      2       2.2402     -0.00000
      3       3.2721     -0.00000
      4       4.0961     -0.00000
      5       6.8501      0.00000

 k-point    67 :       0.3846    0.2308    0.2308
  band No.  band energies     occupation 
      1      -0.4390      2.00000
      2       1.4630     -0.00000
      3       3.6913     -0.00000
      4       4.4822     -0.00000
      5       6.2259      0.00000

 k-point    68 :       0.4615    0.2308    0.2308
  band No.  band energies     occupation 
      1       0.1072      2.00071
      2       0.7439      0.33463
      3       4.2045     -0.00000
      4       4.9866     -0.00000
      5       5.5776     -0.00000

 k-point    69 :       0.3077    0.3077    0.2308
  band No.  band energies     occupation 
      1      -0.5390      2.00000
      2       2.3890     -0.00000
      3       2.8168     -0.00000
      4       4.1614     -0.00000
      5       5.6524     -0.00000

 k-point    70 :       0.3846    0.3077    0.2308
  band No.  band energies     occupation 
      1      -0.0908      2.00000
      2       1.7808     -0.00000
      3       3.0794     -0.00000
      4       4.5372     -0.00000
      5       4.8843     -0.00000

 k-point    71 :       0.4615    0.3077    0.2308
  band No.  band energies     occupation 
      1       0.4509      2.05582
      2       1.0804     -0.01071
      3       3.5822     -0.00000
      4       4.1881     -0.00000
      5       5.0325     -0.00000

 k-point    72 :       0.3846    0.3846    0.2308
  band No.  band energies     occupation 
      1       0.3528      2.05350
      2       2.0180     -0.00000
      3       2.5042     -0.00000
      4       4.1258     -0.00000
      5       4.9047     -0.00000

 k-point    73 :       0.4615    0.3846    0.2308
  band No.  band energies     occupation 
      1       0.8872     -0.06912
      2       1.4979     -0.00000
      3       2.8360     -0.00000
      4       3.4316     -0.00000
      5       5.3804     -0.00000

 k-point    74 :       0.4615    0.4615    0.2308
  band No.  band energies     occupation 
      1       1.4029     -0.00000
      2       1.8328     -0.00000
      3       2.3227     -0.00000
      4       2.7474     -0.00000
      5       5.7978     -0.00000

 k-point    75 :       0.3077    0.3077    0.3077
  band No.  band energies     occupation 
      1      -0.1901      2.00000
      2       2.7136     -0.00000
      3       2.7136     -0.00000
      4       3.7011     -0.00000
      5       5.7450     -0.00000

 k-point    76 :       0.3846    0.3077    0.3077
  band No.  band energies     occupation 
      1       0.2547      2.01546
      2       2.0972     -0.00000
      3       3.1316     -0.00000
      4       3.9318     -0.00000
      5       5.4910     -0.00000

 k-point    77 :       0.4615    0.3077    0.3077
  band No.  band energies     occupation 
      1       0.7918      0.09831
      2       1.4136     -0.00000
      3       3.6434     -0.00000
      4       4.4004     -0.00000
      5       4.9553     -0.00000

 k-point    78 :       0.3846    0.3846    0.3077
  band No.  band energies     occupation 
      1       0.6948      0.68504
      2       2.3420     -0.00000
      3       2.7641     -0.00000
      4       4.0862     -0.00000
      5       4.3843     -0.00000

 k-point    79 :       0.4615    0.3846    0.3077
  band No.  band energies     occupation 
      1       1.2240     -0.00045
      2       1.8266     -0.00000
      3       3.1204     -0.00000
      4       3.7108     -0.00000
      5       4.5316     -0.00000

 k-point    80 :       0.4615    0.4615    0.3077
  band No.  band energies     occupation 
      1       1.7337     -0.00000
      2       2.1564     -0.00000
      3       2.6397     -0.00000
      4       3.0577     -0.00000
      5       4.9202     -0.00000

 k-point    81 :       0.3846    0.3846    0.3846
  band No.  band energies     occupation 
      1       1.1296     -0.00416
      2       2.7592     -0.00000
      3       2.7592     -0.00000
      4       3.7050     -0.00000
      5       4.5747     -0.00000

 k-point    82 :       0.4615    0.3846    0.3846
  band No.  band energies     occupation 
      1       1.6505     -0.00000
      2       2.2360     -0.00000
      3       3.2701     -0.00000
      4       3.9930     -0.00000
      5       4.4129     -0.00000

 k-point    83 :       0.4615    0.4615    0.3846
  band No.  band energies     occupation 
      1       2.1524     -0.00000
      2       2.5732     -0.00000
      3       2.9854     -0.00000
      4       3.4118     -0.00000
      5       4.1674     -0.00000

 k-point    84 :       0.4615    0.4615    0.4615
  band No.  band energies     occupation 
      1       2.6428     -0.00000
      2       3.0837     -0.00000
      3       3.0837     -0.00000
      4       3.6883     -0.00000
      5       3.7397     -0.00000


--------------------------------------------------------------------------------------------------------


 soft charge-density along one line, spin component           1
         0         1         2         3         4         5         6         7         8         9
 total charge-density along one line

 pseudopotential strength for first ion, spin component:           1
  2.178   0.010   0.000   0.000   0.000   0.000   0.000   0.000
  0.010   0.092  -0.000  -0.000  -0.000   0.000   0.000   0.000
  0.000  -0.000   4.134   0.000   0.000  -0.260   0.000   0.000
  0.000  -0.000   0.000   4.134   0.000   0.000  -0.260   0.000
  0.000  -0.000   0.000   0.000   4.134   0.000   0.000  -0.260
  0.000   0.000  -0.260   0.000   0.000  -1.076  -0.000  -0.000
  0.000   0.000   0.000  -0.260   0.000  -0.000  -1.076  -0.000
  0.000   0.000   0.000   0.000  -0.260  -0.000  -0.000  -1.076
 total augmentation occupancy for first ion, spin component:           1
  0.878   0.050   0.000   0.000   0.000   0.000   0.000   0.000
  0.050   0.003   0.000   0.000   0.000   0.000   0.000   0.000
  0.000   0.000   0.028  -0.000  -0.000   0.002   0.000  -0.000
  0.000   0.000  -0.000   0.028  -0.000  -0.000   0.002   0.000
  0.000   0.000  -0.000  -0.000   0.028  -0.000  -0.000   0.002
  0.000   0.000   0.002  -0.000  -0.000   0.000  -0.000  -0.000
  0.000   0.000  -0.000   0.002  -0.000  -0.000   0.000   0.000
 -0.000   0.000  -0.000   0.000   0.002  -0.000   0.000   0.000


------------------------ aborting loop because EDIFF is reached ----------------------------------------


    CHARGE:  cpu time    0.1014: real time    0.1016
    FORLOC:  cpu time    0.0022: real time    0.0023
    FORNL :  cpu time    0.1163: real time    0.1165
    STRESS:  cpu time    0.7176: real time    0.7185
    FORCOR:  cpu time    0.0709: real time    0.0710
    FORHAR:  cpu time    0.0133: real time    0.0134
    MIXING:  cpu time    0.0015: real time    0.0015
    OFIELD:  cpu time    0.0000: real time    0.0000

  FORCE on cell =-STRESS in cart. coord.  units (eV):
  Direction    XX          YY          ZZ          XY          YZ          ZX
  --------------------------------------------------------------------------------------
  Alpha Z    -1.11666    -1.11666    -1.11666
  Ewald      -4.15572    -4.15572    -4.15572    -0.00000    -0.00000     0.00000
  Hartree     0.01046     0.01046     0.01046    -0.00000    -0.00000    -0.00000
  E(xc)      -3.57157    -3.57157    -3.57157     0.00000     0.00000     0.00000
  Local       0.68639     0.68639     0.68639    -0.00000    -0.00000    -0.00000
  n-local     5.55215     5.59062     5.58637    -0.00112    -0.00380    -0.00376
  augment    -0.24056    -0.24056    -0.24056     0.00000     0.00000     0.00000
  Kinetic     5.63172     2.08143     0.72288     1.92617     0.79324     0.87638
  Fock        0.00000     0.00000     0.00000     0.00000     0.00000     0.00000
  -------------------------------------------------------------------------------------
  Total       0.00073     0.00073     0.00073    -0.00000    -0.00000     0.00000
  in kB       0.01581     0.01581     0.01581    -0.00000    -0.00000     0.00000
  external pressure =        0.02 kB  Pullay stress =        0.00 kB


 VOLUME and BASIS-vectors are now :
 -----------------------------------------------------------------------------
  energy-cutoff  :      500.00
  volume of cell :       74.27
      direct lattice vectors                 reciprocal lattice vectors
     4.203380859 -0.000000000 -0.000000000     0.237903734  0.000000000 -0.000000000
    -0.000000000  4.203380859 -0.000000000     0.000000000  0.237903734  0.000000000
     0.000000000 -0.000000000  4.203380859     0.000000000  0.000000000  0.237903734

  length of vectors
     4.203380859  4.203380859  4.203380859     0.237903734  0.237903734  0.237903734


 FORCES acting on ions
    electron-ion (+dipol)            ewald-force                    non-local-force                 convergence-correction
 -----------------------------------------------------------------------------------------------
   -.378E-11 -.378E-11 -.378E-11   -.319E-09 -.319E-09 -.319E-09   0.205E-25 0.183E-25 0.206E-25   0.924E-13 0.924E-13 0.924E-13
   -.789E-09 -.789E-09 -.789E-09   0.319E-09 0.319E-09 0.319E-09   -.381E-25 -.360E-25 -.421E-25   -.357E-12 -.357E-12 -.357E-12
 -----------------------------------------------------------------------------------------------
   -.793E-09 -.793E-09 -.793E-09   -.118E-16 -.964E-17 0.894E-17   -.176E-25 -.176E-25 -.215E-25   -.264E-12 -.264E-12 -.264E-12


 POSITION                                       TOTAL-FORCE (eV/Angst)
 -----------------------------------------------------------------------------------
      0.00000     -0.00000      0.00000        -0.000000     -0.000000     -0.000000
      2.10169      2.10169      2.10169         0.000000      0.000000      0.000000
 -----------------------------------------------------------------------------------
    total drift:                               -0.000000     -0.000000     -0.000000


--------------------------------------------------------------------------------------------------------



  FREE ENERGIE OF THE ION-ELECTRON SYSTEM (eV)
  ---------------------------------------------------
  free  energy   TOTEN  =        -2.60915507 eV

  energy  without entropy=       -2.60828323  energy(sigma->0) =       -2.60886446

 d Force = 0.0000000E+00[ 0.000E+00, 0.000E+00]  d Energy = 0.2975360E-02-0.298E-02
 d Force = 0.0000000E+00[ 0.000E+00, 0.000E+00]  d Ewald  = 0.1722000E+00-0.172E+00


--------------------------------------------------------------------------------------------------------


    POTLOK:  cpu time    0.0702: real time    0.0703


--------------------------------------------------------------------------------------------------------




--------------------------------------------------------------------------------------------------------


  
 reached required accuracy - stopping structural energy minimisation
 writing wavefunctions
     LOOP+:  cpu time    3.0806: real time    6.1426
    4ORBIT:  cpu time    0.0000: real time    0.0000

 total amount of memory used by VASP MPI-rank0    64448. kBytes
=======================================================================

   base      :      30000. kBytes
   nonl-proj :      10880. kBytes
   fftplans  :       3916. kBytes
   grid      :       6018. kBytes
   one-center:          6. kBytes
   wavefun   :      13628. kBytes

  
  
 General timing and accounting informations for this job:
 ========================================================
  
                  Total CPU time used (sec):       12.793
                            User time (sec):       12.607
                          System time (sec):        0.186
                         Elapsed time (sec):       30.531
  
                   Maximum memory used (kb):      260440.
                   Average memory used (kb):          N/A
  
                          Minor page faults:        40202
                          Major page faults:           20
                 Voluntary context switches:         1692
