<?xml version="1.0" encoding="ISO-8859-1"?>
<modeling>
 <generator>
  <i name="program" type="string">vasp </i>
  <i name="version" type="string">6.2.1  </i>
  <i name="subversion" type="string">16May21 (build Dec 20 2021 17:02:34) complex                          parallel </i>
  <i name="platform" type="string">LinuxGNU </i>
  <i name="date" type="string">2025 09 22 </i>
  <i name="time" type="string">12:54:36 </i>
 </generator>
 <incar>
  <i type="int" name="IBRION">     2</i>
  <i type="int" name="NSW">   100</i>
  <i name="ENCUT">    500.00000000</i>
  <i type="logical" name="LVTOT"> T  </i>
  <i type="logical" name="LVHAR"> T  </i>
  <i type="string" name="GGA">PE</i>
 </incar>
 <primitive_cell>
  <structure name="primitive_cell" >
   <crystal>
    <varray name="basis" >
     <v>       2.14100003       2.14100003      -2.14100003 </v>
     <v>      -2.14100003       2.14100003       2.14100003 </v>
     <v>       2.14100003      -2.14100003       2.14100003 </v>
    </varray>
    <i name="volume">     39.25635866 </i>
    <varray name="rec_basis" >
     <v>       0.23353573       0.23353573      -0.00000000 </v>
     <v>       0.00000000       0.23353573       0.23353573 </v>
     <v>       0.23353573      -0.00000000       0.23353573 </v>
    </varray>
   </crystal>
   <varray name="positions" >
    <v>       0.00000000       0.00000000       0.00000000 </v>
   </varray>
  </structure>
  <varray name="primitive_index" >
   <v type="int" >        1 </v>
  </varray>
 </primitive_cell>
 <kpoints>
  <generation param="Monkhorst-Pack">
   <v type="int" name="divisions">      13       13       13 </v>
   <v name="usershift">      0.00000000       0.00000000       0.00000000 </v>
   <v name="genvec1">      0.07692308       0.00000000       0.00000000 </v>
   <v name="genvec2">      0.00000000       0.07692308       0.00000000 </v>
   <v name="genvec3">      0.00000000       0.00000000       0.07692308 </v>
   <v name="shift">      0.00000000       0.00000000       0.00000000 </v>
  </generation>
  <varray name="kpointlist" >
   <v>       0.00000000       0.00000000       0.00000000 </v>
   <v>       0.07692308       0.00000000       0.00000000 </v>
   <v>       0.15384615       0.00000000       0.00000000 </v>
   <v>       0.23076923       0.00000000       0.00000000 </v>
   <v>       0.30769231       0.00000000       0.00000000 </v>
   <v>       0.38461538       0.00000000       0.00000000 </v>
   <v>       0.46153846       0.00000000       0.00000000 </v>
   <v>       0.07692308       0.07692308       0.00000000 </v>
   <v>       0.15384615       0.07692308       0.00000000 </v>
   <v>       0.23076923       0.07692308       0.00000000 </v>
   <v>       0.30769231       0.07692308       0.00000000 </v>
   <v>       0.38461538       0.07692308       0.00000000 </v>
   <v>       0.46153846       0.07692308       0.00000000 </v>
   <v>       0.15384615       0.15384615       0.00000000 </v>
   <v>       0.23076923       0.15384615       0.00000000 </v>
   <v>       0.30769231       0.15384615       0.00000000 </v>
   <v>       0.38461538       0.15384615       0.00000000 </v>
   <v>       0.46153846       0.15384615       0.00000000 </v>
   <v>       0.23076923       0.23076923       0.00000000 </v>
   <v>       0.30769231       0.23076923       0.00000000 </v>
   <v>       0.38461538       0.23076923       0.00000000 </v>
   <v>       0.46153846       0.23076923       0.00000000 </v>
   <v>       0.30769231       0.30769231       0.00000000 </v>
   <v>       0.38461538       0.30769231       0.00000000 </v>
   <v>       0.46153846       0.30769231       0.00000000 </v>
   <v>       0.38461538       0.38461538       0.00000000 </v>
   <v>       0.46153846       0.38461538       0.00000000 </v>
   <v>       0.46153846       0.46153846       0.00000000 </v>
   <v>       0.07692308       0.07692308       0.07692308 </v>
   <v>       0.15384615       0.07692308       0.07692308 </v>
   <v>       0.23076923       0.07692308       0.07692308 </v>
   <v>       0.30769231       0.07692308       0.07692308 </v>
   <v>       0.38461538       0.07692308       0.07692308 </v>
   <v>       0.46153846       0.07692308       0.07692308 </v>
   <v>       0.15384615       0.15384615       0.07692308 </v>
   <v>       0.23076923       0.15384615       0.07692308 </v>
   <v>       0.30769231       0.15384615       0.07692308 </v>
   <v>       0.38461538       0.15384615       0.07692308 </v>
   <v>       0.46153846       0.15384615       0.07692308 </v>
   <v>       0.23076923       0.23076923       0.07692308 </v>
   <v>       0.30769231       0.23076923       0.07692308 </v>
   <v>       0.38461538       0.23076923       0.07692308 </v>
   <v>       0.46153846       0.23076923       0.07692308 </v>
   <v>       0.30769231       0.30769231       0.07692308 </v>
   <v>       0.38461538       0.30769231       0.07692308 </v>
   <v>       0.46153846       0.30769231       0.07692308 </v>
   <v>       0.38461538       0.38461538       0.07692308 </v>
   <v>       0.46153846       0.38461538       0.07692308 </v>
   <v>       0.46153846       0.46153846       0.07692308 </v>
   <v>       0.15384615       0.15384615       0.15384615 </v>
   <v>       0.23076923       0.15384615       0.15384615 </v>
   <v>       0.30769231       0.15384615       0.15384615 </v>
   <v>       0.38461538       0.15384615       0.15384615 </v>
   <v>       0.46153846       0.15384615       0.15384615 </v>
   <v>       0.23076923       0.23076923       0.15384615 </v>
   <v>       0.30769231       0.23076923       0.15384615 </v>
   <v>       0.38461538       0.23076923       0.15384615 </v>
   <v>       0.46153846       0.23076923       0.15384615 </v>
   <v>       0.30769231       0.30769231       0.15384615 </v>
   <v>       0.38461538       0.30769231       0.15384615 </v>
   <v>       0.46153846       0.30769231       0.15384615 </v>
   <v>       0.38461538       0.38461538       0.15384615 </v>
   <v>       0.46153846       0.38461538       0.15384615 </v>
   <v>       0.46153846       0.46153846       0.15384615 </v>
   <v>       0.23076923       0.23076923       0.23076923 </v>
   <v>       0.30769231       0.23076923       0.23076923 </v>
   <v>       0.38461538       0.23076923       0.23076923 </v>
   <v>       0.46153846       0.23076923       0.23076923 </v>
   <v>       0.30769231       0.30769231       0.23076923 </v>
   <v>       0.38461538       0.30769231       0.23076923 </v>
   <v>       0.46153846       0.30769231       0.23076923 </v>
   <v>       0.38461538       0.38461538       0.23076923 </v>
   <v>       0.46153846       0.38461538       0.23076923 </v>
   <v>       0.46153846       0.46153846       0.23076923 </v>
   <v>       0.30769231       0.30769231       0.30769231 </v>
   <v>       0.38461538       0.30769231       0.30769231 </v>
   <v>       0.46153846       0.30769231       0.30769231 </v>
   <v>       0.38461538       0.38461538       0.30769231 </v>
   <v>       0.46153846       0.38461538       0.30769231 </v>
   <v>       0.46153846       0.46153846       0.30769231 </v>
   <v>       0.38461538       0.38461538       0.38461538 </v>
   <v>       0.46153846       0.38461538       0.38461538 </v>
   <v>       0.46153846       0.46153846       0.38461538 </v>
   <v>       0.46153846       0.46153846       0.46153846 </v>
  </varray>
  <varray name="weights" >
   <v>       0.00045517 </v>
   <v>       0.00273100 </v>
   <v>       0.00273100 </v>
   <v>       0.00273100 </v>
   <v>       0.00273100 </v>
   <v>       0.00273100 </v>
   <v>       0.00273100 </v>
   <v>       0.00546199 </v>
   <v>       0.01092399 </v>
   <v>       0.01092399 </v>
   <v>       0.01092399 </v>
   <v>       0.01092399 </v>
   <v>       0.01092399 </v>
   <v>       0.00546199 </v>
   <v>       0.01092399 </v>
   <v>       0.01092399 </v>
   <v>       0.01092399 </v>
   <v>       0.01092399 </v>
   <v>       0.00546199 </v>
   <v>       0.01092399 </v>
   <v>       0.01092399 </v>
   <v>       0.01092399 </v>
   <v>       0.00546199 </v>
   <v>       0.01092399 </v>
   <v>       0.01092399 </v>
   <v>       0.00546199 </v>
   <v>       0.01092399 </v>
   <v>       0.00546199 </v>
   <v>       0.00364133 </v>
   <v>       0.01092399 </v>
   <v>       0.01092399 </v>
   <v>       0.01092399 </v>
   <v>       0.01092399 </v>
   <v>       0.01092399 </v>
   <v>       0.01092399 </v>
   <v>       0.02184797 </v>
   <v>       0.02184797 </v>
   <v>       0.02184797 </v>
   <v>       0.02184797 </v>
   <v>       0.01092399 </v>
   <v>       0.02184797 </v>
   <v>       0.02184797 </v>
   <v>       0.02184797 </v>
   <v>       0.01092399 </v>
   <v>       0.02184797 </v>
   <v>       0.02184797 </v>
   <v>       0.01092399 </v>
   <v>       0.02184797 </v>
   <v>       0.01092399 </v>
   <v>       0.00364133 </v>
   <v>       0.01092399 </v>
   <v>       0.01092399 </v>
   <v>       0.01092399 </v>
   <v>       0.01092399 </v>
   <v>       0.01092399 </v>
   <v>       0.02184797 </v>
   <v>       0.02184797 </v>
   <v>       0.02184797 </v>
   <v>       0.01092399 </v>
   <v>       0.02184797 </v>
   <v>       0.02184797 </v>
   <v>       0.01092399 </v>
   <v>       0.02184797 </v>
   <v>       0.01092399 </v>
   <v>       0.00364133 </v>
   <v>       0.01092399 </v>
   <v>       0.01092399 </v>
   <v>       0.01092399 </v>
   <v>       0.01092399 </v>
   <v>       0.02184797 </v>
   <v>       0.02184797 </v>
   <v>       0.01092399 </v>
   <v>       0.02184797 </v>
   <v>       0.01092399 </v>
   <v>       0.00364133 </v>
   <v>       0.01092399 </v>
   <v>       0.01092399 </v>
   <v>       0.01092399 </v>
   <v>       0.02184797 </v>
   <v>       0.01092399 </v>
   <v>       0.00364133 </v>
   <v>       0.01092399 </v>
   <v>       0.01092399 </v>
   <v>       0.00364133 </v>
  </varray>
 </kpoints>
 <parameters>
  <separator name="general" >
   <i type="string" name="SYSTEM">unknown system</i>
   <i type="logical" name="LCOMPAT"> F  </i>
  </separator>
  <separator name="electronic" >
   <i type="string" name="PREC">normal</i>
   <i name="ENMAX">    500.00000000</i>
   <i name="ENAUG">    170.75600000</i>
   <i name="EDIFF">      0.00010000</i>
   <i type="int" name="IALGO">    38</i>
   <i type="int" name="IWAVPR">    11</i>
   <i type="int" name="NBANDS">     5</i>
   <i type="int" name="NBANDSLOW">    -1</i>
   <i type="int" name="NBANDSHIGH">    -1</i>
   <i name="NELECT">      2.00000000</i>
   <i type="int" name="TURBO">     0</i>
   <i type="int" name="IRESTART">     0</i>
   <i type="int" name="NREBOOT">     0</i>
   <i type="int" name="NMIN">     0</i>
   <i name="EREF">      0.00000000</i>
   <separator name="electronic smearing" >
    <i type="int" name="ISMEAR">     1</i>
    <i name="SIGMA">      0.20000000</i>
    <i name="KSPACING">      0.50000000</i>
    <i type="logical" name="KGAMMA"> T  </i>
    <i type="logical" name="KBLOWUP"> T  </i>
   </separator>
   <separator name="electronic projectors" >
    <i type="logical" name="LREAL"> F  </i>
    <v name="ROPT">      0.00000000</v>
    <i type="int" name="LMAXPAW">  -100</i>
    <i type="int" name="LMAXMIX">     2</i>
    <i type="logical" name="NLSPLINE"> F  </i>
   </separator>
   <separator name="electronic startup" >
    <i type="int" name="ISTART">     1</i>
    <i type="int" name="ICHARG">     0</i>
    <i type="int" name="INIWAV">     1</i>
   </separator>
   <separator name="electronic spin" >
    <i type="int" name="ISPIN">     1</i>
    <i type="logical" name="LNONCOLLINEAR"> F  </i>
    <v name="MAGMOM">      1.00000000      1.00000000</v>
    <i name="NUPDOWN">     -1.00000000</i>
    <i type="logical" name="LSORBIT"> F  </i>
    <v name="SAXIS">      0.00000000      0.00000000      1.00000000</v>
    <i type="logical" name="LSPIRAL"> F  </i>
    <v name="QSPIRAL">      0.00000000      0.00000000      0.00000000</v>
    <i type="logical" name="LZEROZ"> F  </i>
   </separator>
   <separator name="electronic exchange-correlation" >
    <i type="logical" name="LASPH"> F  </i>
    <i type="logical" name="LMETAGGA"> F  </i>
   </separator>
   <separator name="electronic convergence" >
    <i type="int" name="NELM">    60</i>
    <i type="int" name="NELMDL">     0</i>
    <i type="int" name="NELMIN">     2</i>
    <i name="ENINI">    500.00000000</i>
    <separator name="electronic convergence detail" >
     <i type="logical" name="LDIAG"> T  </i>
     <i type="logical" name="LSUBROT"> F  </i>
     <i name="WEIMIN">      0.00100000</i>
     <i name="EBREAK">      0.00000500</i>
     <i name="DEPER">      0.30000000</i>
     <i type="int" name="NRMM">     4</i>
     <i name="TIME">      0.40000000</i>
    </separator>
   </separator>
   <separator name="electronic mixer" >
    <i name="AMIX">      0.40000000</i>
    <i name="BMIX">      1.00000000</i>
    <i name="AMIN">      0.10000000</i>
    <i name="AMIX_MAG">      1.60000000</i>
    <i name="BMIX_MAG">      1.00000000</i>
    <separator name="electronic mixer details" >
     <i type="int" name="IMIX">     4</i>
     <i type="logical" name="MIXFIRST"> F  </i>
     <i type="int" name="MAXMIX">   -45</i>
     <i name="WC">    100.00000000</i>
     <i type="int" name="INIMIX">     1</i>
     <i type="int" name="MIXPRE">     1</i>
     <i type="int" name="MREMOVE">     5</i>
    </separator>
   </separator>
   <separator name="electronic dipolcorrection" >
    <i type="logical" name="LDIPOL"> F  </i>
    <i type="logical" name="LMONO"> F  </i>
    <i type="int" name="IDIPOL">     0</i>
    <i name="EPSILON">      1.00000000</i>
    <v name="DIPOL">   -100.00000000   -100.00000000   -100.00000000</v>
    <i name="EFIELD">      0.00000000</i>
   </separator>
  </separator>
  <separator name="grids" >
   <i type="int" name="NGX">    24</i>
   <i type="int" name="NGY">    24</i>
   <i type="int" name="NGZ">    24</i>
   <i type="int" name="NGXF">    48</i>
   <i type="int" name="NGYF">    48</i>
   <i type="int" name="NGZF">    48</i>
   <i type="logical" name="ADDGRID"> F  </i>
  </separator>
  <separator name="ionic" >
   <i type="int" name="NSW">   100</i>
   <i type="int" name="IBRION">     2</i>
   <i type="int" name="MDALGO">     0</i>
   <i type="int" name="ISIF">     2</i>
   <i name="PSTRESS">      0.00000000</i>
   <i name="EDIFFG">      0.00100000</i>
   <i type="int" name="NFREE">     1</i>
   <i name="POTIM">      0.50000000</i>
   <i name="SMASS">     -3.00000000</i>
   <i name="SCALEE">      1.00000000</i>
  </separator>
  <separator name="ionic md" >
   <i name="TEBEG">      0.00010000</i>
   <i name="TEEND">      0.00010000</i>
   <i type="int" name="NBLOCK">     1</i>
   <i type="int" name="KBLOCK">   100</i>
   <i type="int" name="NPACO">   256</i>
   <i name="APACO">     16.00000000</i>
  </separator>
  <separator name="symmetry" >
   <i type="int" name="ISYM">     2</i>
   <i name="SYMPREC">      0.00001000</i>
  </separator>
  <separator name="dos" >
   <i type="int" name="LORBIT">     0</i>
   <v name="RWIGS">     -1.00000000</v>
   <i type="int" name="NEDOS">   301</i>
   <i name="EMIN">     10.00000000</i>
   <i name="EMAX">    -10.00000000</i>
   <i name="EFERMI">      0.00000000</i>
  </separator>
  <separator name="writing" >
   <i type="int" name="NWRITE">     2</i>
   <i type="logical" name="LWAVE"> T  </i>
   <i type="logical" name="LDOWNSAMPLE"> F  </i>
   <i type="logical" name="LCHARG"> T  </i>
   <i type="logical" name="LPARD"> F  </i>
   <i type="logical" name="LVTOT"> F  </i>
   <i type="logical" name="LVHAR"> T  </i>
   <i type="logical" name="LELF"> F  </i>
   <i type="logical" name="LOPTICS"> F  </i>
   <v name="STM">      0.00000000      0.00000000      0.00000000      0.00000000      0.00000000      0.00000000      0.00000000</v>
  </separator>
  <separator name="performance" >
   <i type="int" name="NPAR">     1</i>
   <i type="int" name="NSIM">     4</i>
   <i type="int" name="NBLK">    -1</i>
   <i type="logical" name="LPLANE"> T  </i>
   <i type="logical" name="LSCALAPACK"> T  </i>
   <i type="logical" name="LSCAAWARE"> F  </i>
   <i type="logical" name="LSCALU"> F  </i>
   <i type="logical" name="LASYNC"> F  </i>
   <i type="logical" name="LORBITALREAL"> F  </i>
  </separator>
  <separator name="miscellaneous" >
   <i type="int" name="IDIOT">     3</i>
   <i type="int" name="PHON_NSTRUCT">    -1</i>
   <i type="logical" name="LMUSIC"> F  </i>
   <v name="POMASS">     22.99000000</v>
   <v name="DARWINR">      0.00000000</v>
   <v name="DARWINV">      1.00000000</v>
   <i type="logical" name="LCORR"> T  </i>
  </separator>
  <i type="logical" name="GGA_COMPAT"> T  </i>
  <i type="logical" name="LBERRY"> F  </i>
  <i type="int" name="ICORELEVEL">     0</i>
  <i type="logical" name="LDAU"> F  </i>
  <i type="int" name="I_CONSTRAINED_M">     0</i>
  <separator name="electronic exchange-correlation" >
   <i type="string" name="GGA">PE</i>
   <i type="int" name="VOSKOWN">     0</i>
   <i type="logical" name="LHFCALC"> F  </i>
   <i type="string" name="PRECFOCK"></i>
   <i type="logical" name="LSYMGRAD"> F  </i>
   <i type="logical" name="LHFONE"> F  </i>
   <i type="logical" name="LRHFCALC"> F  </i>
   <i type="logical" name="LTHOMAS"> F  </i>
   <i type="logical" name="LMODELHF"> F  </i>
   <i type="logical" name="LFOCKACE"> F  </i>
   <i name="ENCUT4O">     -1.00000000</i>
   <i type="int" name="EXXOEP">     0</i>
   <i type="int" name="FOURORBIT">     0</i>
   <i name="AEXX">      0.00000000</i>
   <i name="HFALPHA">      0.00000000</i>
   <i name="MCALPHA">      0.00000000</i>
   <i name="ALDAX">      1.00000000</i>
   <i name="AGGAX">      1.00000000</i>
   <i name="ALDAC">      1.00000000</i>
   <i name="AGGAC">      1.00000000</i>
   <i type="int" name="NKREDX">     1</i>
   <i type="int" name="NKREDY">     1</i>
   <i type="int" name="NKREDZ">     1</i>
   <i type="logical" name="SHIFTRED"> F  </i>
   <i type="logical" name="ODDONLY"> F  </i>
   <i type="logical" name="EVENONLY"> F  </i>
   <i type="int" name="LMAXFOCK">     0</i>
   <i type="int" name="NMAXFOCKAE">     0</i>
   <i type="logical" name="LFOCKAEDFT"> F  </i>
   <i name="HFSCREEN">      0.00000000</i>
   <i name="HFSCREENC">      0.00000000</i>
   <i type="int" name="NBANDSGWLOW">     0</i>
  </separator>
  <separator name="vdW DFT" >
   <i type="logical" name="LUSE_VDW"> F  </i>
   <i name="Zab_VDW">     -0.84910000</i>
   <i name="PARAM1">      0.12340000</i>
   <i name="PARAM2">      1.00000000</i>
   <i name="PARAM3">      0.00000000</i>
  </separator>
  <separator name="model GW" >
   <i type="int" name="MODEL_GW">     0</i>
   <i name="MODEL_EPS0">     23.55381520</i>
   <i name="MODEL_ALPHA">      1.00000000</i>
  </separator>
  <separator name="linear response parameters" >
   <i type="logical" name="LEPSILON"> F  </i>
   <i type="logical" name="LRPA"> F  </i>
   <i type="logical" name="LNABLA"> F  </i>
   <i type="logical" name="LVEL"> F  </i>
   <i type="int" name="KINTER">     0</i>
   <i name="CSHIFT">      0.10000000</i>
   <i name="OMEGAMAX">     -1.00000000</i>
   <i name="DEG_THRESHOLD">      0.00200000</i>
   <i name="RTIME">     -0.10000000</i>
   <i name="WPLASMAI">      0.00000000</i>
   <v name="DFIELD">      0.00000000      0.00000000      0.00000000</v>
   <v name="WPLASMA">      0.00000000      0.00000000      0.00000000      0.00000000      0.00000000      0.00000000      0.00000000      0.00000000      0.00000000</v>
  </separator>
  <separator name="orbital magnetization" >
   <i type="logical" name="NUCIND"> F  </i>
   <v name="MAGPOS">      0.00000000      0.00000000      0.00000000</v>
   <i type="logical" name="LNICSALL"> T  </i>
   <i type="logical" name="ORBITALMAG"> F  </i>
   <i type="logical" name="LMAGBLOCH"> F  </i>
   <i type="logical" name="LCHIMAG"> F  </i>
   <i type="logical" name="LGAUGE"> T  </i>
   <i type="int" name="MAGATOM">     0</i>
   <v name="MAGDIPOL">      0.00000000      0.00000000      0.00000000</v>
   <v name="AVECCONST">      0.00000000      0.00000000      0.00000000</v>
  </separator>
  <separator name="response functions" >
   <i type="logical" name="LFINITE_TEMPERATURE"> F  </i>
   <i type="logical" name="LADDER"> F  </i>
   <i type="logical" name="LRPAFORCE"> F  </i>
   <i type="logical" name="LFXC"> F  </i>
   <i type="logical" name="LHARTREE"> T  </i>
   <i type="int" name="IBSE">     0</i>
   <v type="int" name="KPOINT">    -1     0     0     0</v>
   <i type="logical" name="LTCTC"> F  </i>
   <i type="logical" name="LTCTE"> F  </i>
   <i type="logical" name="LTETE"> F  </i>
   <i type="logical" name="LTRIPLET"> F  </i>
   <i type="logical" name="LFXCEPS"> F  </i>
   <i type="logical" name="LFXHEG"> F  </i>
   <i type="int" name="NATURALO">     2</i>
   <i type="logical" name="LHOLEGF"> F  </i>
   <i type="logical" name="L2ORDER"> F  </i>
   <i type="logical" name="LDMP1"> F  </i>
   <i type="logical" name="LMP2LT"> F  </i>
   <i type="logical" name="LSMP2LT"> F  </i>
   <i type="logical" name="LGWLF"> F  </i>
   <i name="ENCUTGW">     -2.00000000</i>
   <i name="ENCUTGWSOFT">     -2.00000000</i>
   <i name="ENCUTLF">     -1.00000000</i>
   <i type="logical" name="LESF_SPLINES"> F  </i>
   <i type="int" name="LMAXMP2">    -1</i>
   <i name="SCISSOR">      0.00000000</i>
   <i type="int" name="NOMEGA">     0</i>
   <i type="int" name="NOMEGAR">     0</i>
   <i type="int" name="NBANDSGW">    -1</i>
   <i type="int" name="NBANDSO">    -1</i>
   <i type="int" name="NBANDSV">    -1</i>
   <i type="int" name="NELM">     1</i>
   <i type="int" name="NELMHF">     1</i>
   <i type="int" name="DIM">     3</i>
   <i type="int" name="IESPILON">     4</i>
   <i type="int" name="ANTIRES">     0</i>
   <i name="OMEGAMAX">    -30.00000000</i>
   <i name="OMEGAMIN">    -30.00000000</i>
   <i name="OMEGATL">   -200.00000000</i>
   <i type="int" name="OMEGAGRID">     0</i>
   <i name="CSHIFT">     -0.10000000</i>
   <i type="logical" name="LSELFENERGY"> F  </i>
   <i type="logical" name="LSPECTRAL"> F  </i>
   <i type="logical" name="LSPECTRALGW"> F  </i>
   <i type="logical" name="LSINGLES"> F  </i>
   <i type="logical" name="LFERMIGW"> F  </i>
   <i type="logical" name="ODDONLYGW"> F  </i>
   <i type="logical" name="EVENONLYGW"> F  </i>
   <i type="int" name="NKREDLFX">     1</i>
   <i type="int" name="NKREDLFY">     1</i>
   <i type="int" name="NKREDLFZ">     1</i>
   <i type="int" name="MAXMEM">  2800</i>
   <i type="int" name="TELESCOPE">     0</i>
   <i type="int" name="NTAUPAR">    -1</i>
   <i type="int" name="NOMEGAPAR">    -1</i>
   <i name="DAMP_NEWTON">      0.80000001</i>
   <i name="LAMBDA">      1.00000000</i>
  </separator>
  <separator name="External order field" >
   <i name="OFIELD_KAPPA">      0.00000000</i>
   <v name="OFIELD_K">      0.00000000      0.00000000      0.00000000</v>
   <i name="OFIELD_Q6_NEAR">      0.00000000</i>
   <i name="OFIELD_Q6_FAR">      0.00000000</i>
   <i name="OFIELD_A">      0.00000000</i>
  </separator>
 </parameters>
 <atominfo>
  <atoms>       2 </atoms>
  <types>       1 </types>
  <array name="atoms" >
   <dimension dim="1">ion</dimension>
   <field type="string">element</field>
   <field type="int">atomtype</field>
   <set>
    <rc><c>Na</c><c>   1</c></rc>
    <rc><c>Na</c><c>   1</c></rc>
   </set>
  </array>
  <array name="atomtypes" >
   <dimension dim="1">type</dimension>
   <field type="int">atomspertype</field>
   <field type="string">element</field>
   <field>mass</field>
   <field>valence</field>
   <field type="string">pseudopotential</field>
   <set>
    <rc><c>   2</c><c>Na</c><c>     22.99000000</c><c>      1.00000000</c><c> PAW_GGA Na 05Jan2001                   </c></rc>
   </set>
  </array>
 </atominfo>
 <structure name="initialpos" >
  <crystal>
   <varray name="basis" >
    <v>       4.28200006       0.00000000       0.00000000 </v>
    <v>       0.00000000       4.28200006       0.00000000 </v>
    <v>       0.00000000       0.00000000       4.28200006 </v>
   </varray>
   <i name="volume">     78.51271733 </i>
   <varray name="rec_basis" >
    <v>       0.23353573       0.00000000       0.00000000 </v>
    <v>       0.00000000       0.23353573       0.00000000 </v>
    <v>       0.00000000       0.00000000       0.23353573 </v>
   </varray>
  </crystal>
  <varray name="positions" >
   <v>       0.00000000       0.00000000       0.00000000 </v>
   <v>       0.50000000       0.50000000       0.50000000 </v>
  </varray>
 </structure>
 <calculation>
  <scstep>
   <time name="dav">    1.12    1.13</time>
   <time name="total">    1.29    2.04</time>
   <energy>
    <i name="alphaZ">     -1.05627525 </i>
    <i name="ewald">    -12.23825003 </i>
    <i name="hartreedc">     -0.00859700 </i>
    <i name="XCdc">    -20.69963133 </i>
    <i name="pawpsdc">     21.41923753 </i>
    <i name="pawaedc">      0.06003021 </i>
    <i name="eentropy">     -0.00094904 </i>
    <i name="bandstr">     -0.10806692 </i>
    <i name="atom">     10.37198881 </i>
    <i name="e_fr_energy">     -2.26051301 </i>
    <i name="e_wo_entrp">     -2.25956397 </i>
    <i name="e_0_energy">     -2.26019666 </i>
   </energy>
  </scstep>
  <scstep>
   <time name="dav">    1.01    1.02</time>
   <time name="total">    1.17    1.18</time>
   <energy>
    <i name="e_fr_energy">     -2.59529508 </i>
    <i name="e_wo_entrp">     -2.59438315 </i>
    <i name="e_0_energy">     -2.59499110 </i>
   </energy>
  </scstep>
  <scstep>
   <time name="dav">    1.14    1.14</time>
   <time name="total">    1.30    1.30</time>
   <energy>
    <i name="e_fr_energy">     -2.59098987 </i>
    <i name="e_wo_entrp">     -2.59007745 </i>
    <i name="e_0_energy">     -2.59068573 </i>
   </energy>
  </scstep>
  <scstep>
   <time name="dav">    0.80    0.80</time>
   <time name="total">    0.86    0.86</time>
   <energy>
    <i name="alphaZ">     -1.05627525 </i>
    <i name="ewald">    -12.23825003 </i>
    <i name="hartreedc">     -0.02666765 </i>
    <i name="XCdc">    -19.54047541 </i>
    <i name="pawpsdc">     21.66919055 </i>
    <i name="pawaedc">     -0.22977728 </i>
    <i name="eentropy">     -0.00091233 </i>
    <i name="bandstr">     -1.53977603 </i>
    <i name="atom">     10.37198881 </i>
    <i name="e_fr_energy">     -2.59095461 </i>
    <i name="e_wo_entrp">     -2.59004228 </i>
    <i name="e_0_energy">     -2.59065050 </i>
   </energy>
  </scstep>
  <structure>
   <crystal>
    <varray name="basis" >
     <v>       4.28200006       0.00000000       0.00000000 </v>
     <v>       0.00000000       4.28200006       0.00000000 </v>
     <v>       0.00000000       0.00000000       4.28200006 </v>
    </varray>
    <i name="volume">     78.51271733 </i>
    <varray name="rec_basis" >
     <v>       0.23353573       0.00000000       0.00000000 </v>
     <v>       0.00000000       0.23353573       0.00000000 </v>
     <v>       0.00000000       0.00000000       0.23353573 </v>
    </varray>
   </crystal>
   <varray name="positions" >
    <v>       0.00000000       0.00000000       0.00000000 </v>
    <v>       0.50000000       0.50000000       0.50000000 </v>
   </varray>
  </structure>
  <varray name="forces" >
   <v>       0.00000000       0.00000000      -0.00000000 </v>
   <v>      -0.00000000      -0.00000000       0.00000000 </v>
  </varray>
  <varray name="stress" >
   <v>      -4.05831875       0.00000000      -0.00000000 </v>
   <v>       0.00000000      -4.05831875       0.00000000 </v>
   <v>      -0.00000000       0.00000000      -4.05831875 </v>
  </varray>
  <energy>
   <i name="e_fr_energy">     -2.59095461 </i>
   <i name="e_wo_entrp">     -2.59004228 </i>
   <i name="e_0_energy">     -2.59065050 </i>
  </energy>
  <time name="totalsc">    5.75    9.56</time>
  <eigenvalues>
   <array>
    <dimension dim="1">band</dimension>
    <dimension dim="2">kpoint</dimension>
    <dimension dim="3">spin</dimension>
    <field>eigene</field>
    <field>occ</field>
    <set>
     <set comment="spin 1">
      <set comment="kpoint 1">
       <r>   -2.6843    1.0000 </r>
       <r>    4.8985   -0.0000 </r>
       <r>    4.8985   -0.0000 </r>
       <r>    5.1804   -0.0000 </r>
       <r>    5.1804   -0.0000 </r>
      </set>
      <set comment="kpoint 2">
       <r>   -2.6344    1.0000 </r>
       <r>    4.0420   -0.0000 </r>
       <r>    4.9469   -0.0000 </r>
       <r>    5.2227   -0.0000 </r>
       <r>    5.2227   -0.0000 </r>
      </set>
      <set comment="kpoint 3">
       <r>   -2.4848    1.0000 </r>
       <r>    3.0549   -0.0000 </r>
       <r>    5.0920   -0.0000 </r>
       <r>    5.3498   -0.0000 </r>
       <r>    5.3498   -0.0000 </r>
      </set>
      <set comment="kpoint 4">
       <r>   -2.2363    1.0000 </r>
       <r>    2.1107   -0.0000 </r>
       <r>    5.3339   -0.0000 </r>
       <r>    5.5619   -0.0000 </r>
       <r>    5.5619   -0.0000 </r>
      </set>
      <set comment="kpoint 5">
       <r>   -1.8901    1.0000 </r>
       <r>    1.2330   -0.0000 </r>
       <r>    5.6725   -0.0000 </r>
       <r>    5.8594   -0.0000 </r>
       <r>    5.8594   -0.0000 </r>
      </set>
      <set comment="kpoint 6">
       <r>   -1.4477    1.0000 </r>
       <r>    0.4330    0.7208 </r>
       <r>    6.1078    0.0000 </r>
       <r>    6.2428    0.0000 </r>
       <r>    6.2428    0.0000 </r>
      </set>
      <set comment="kpoint 7">
       <r>   -0.9112    1.0000 </r>
       <r>   -0.2832    1.0000 </r>
       <r>    6.6396    0.0000 </r>
       <r>    6.7128    0.0000 </r>
       <r>    6.7128    0.0000 </r>
      </set>
      <set comment="kpoint 8">
       <r>   -2.5845    1.0000 </r>
       <r>    3.9398   -0.0000 </r>
       <r>    4.2896   -0.0000 </r>
       <r>    5.2650   -0.0000 </r>
       <r>    5.5836   -0.0000 </r>
      </set>
      <set comment="kpoint 9">
       <r>   -2.4350    1.0000 </r>
       <r>    3.0868   -0.0000 </r>
       <r>    4.2986   -0.0000 </r>
       <r>    5.3921   -0.0000 </r>
       <r>    5.7787   -0.0000 </r>
      </set>
      <set comment="kpoint 10">
       <r>   -2.1867    1.0000 </r>
       <r>    2.1536   -0.0000 </r>
       <r>    4.5168   -0.0000 </r>
       <r>    5.6042   -0.0000 </r>
       <r>    6.0269    0.0000 </r>
      </set>
      <set comment="kpoint 11">
       <r>   -1.8407    1.0000 </r>
       <r>    1.2789   -0.0000 </r>
       <r>    4.8337   -0.0000 </r>
       <r>    5.9016   -0.0000 </r>
       <r>    6.3620    0.0000 </r>
      </set>
      <set comment="kpoint 12">
       <r>   -1.3987    1.0000 </r>
       <r>    0.4802    0.5302 </r>
       <r>    5.2430   -0.0000 </r>
       <r>    6.2850    0.0000 </r>
       <r>    6.7879    0.0000 </r>
      </set>
      <set comment="kpoint 13">
       <r>   -0.8627    1.0000 </r>
       <r>   -0.2353    1.0000 </r>
       <r>    5.7433   -0.0000 </r>
       <r>    6.3335    0.0000 </r>
       <r>    6.7549    0.0000 </r>
      </set>
      <set comment="kpoint 14">
       <r>   -2.2859    1.0000 </r>
       <r>    3.0376   -0.0000 </r>
       <r>    3.5032   -0.0000 </r>
       <r>    5.5191   -0.0000 </r>
       <r>    6.0320    0.0000 </r>
      </set>
      <set comment="kpoint 15">
       <r>   -2.0382    1.0000 </r>
       <r>    2.2738   -0.0000 </r>
       <r>    3.5520   -0.0000 </r>
       <r>    5.7312   -0.0000 </r>
       <r>    6.3052    0.0000 </r>
      </set>
      <set comment="kpoint 16">
       <r>   -1.6931    1.0000 </r>
       <r>    1.4152   -0.0000 </r>
       <r>    3.8544   -0.0000 </r>
       <r>    6.0285    0.0000 </r>
       <r>    6.6576    0.0000 </r>
      </set>
      <set comment="kpoint 17">
       <r>   -1.2521    1.0000 </r>
       <r>    0.6212    0.0512 </r>
       <r>    4.2615   -0.0000 </r>
       <r>    6.0351    0.0000 </r>
       <r>    6.4117    0.0000 </r>
      </set>
      <set comment="kpoint 18">
       <r>   -0.7174    1.0000 </r>
       <r>   -0.0917    1.0002 </r>
       <r>    4.7624   -0.0000 </r>
       <r>    5.3543   -0.0000 </r>
       <r>    6.8810    0.0000 </r>
      </set>
      <set comment="kpoint 19">
       <r>   -1.7915    1.0000 </r>
       <r>    2.3163   -0.0000 </r>
       <r>    2.7966   -0.0000 </r>
       <r>    5.9430   -0.0000 </r>
       <r>    6.7271    0.0000 </r>
      </set>
      <set comment="kpoint 20">
       <r>   -1.4477    1.0000 </r>
       <r>    1.6317   -0.0000 </r>
       <r>    2.9285   -0.0000 </r>
       <r>    5.8746   -0.0000 </r>
       <r>    6.2401    0.0000 </r>
      </set>
      <set comment="kpoint 21">
       <r>   -1.0085    1.0000 </r>
       <r>    0.8540   -0.0132 </r>
       <r>    3.3243   -0.0000 </r>
       <r>    5.1041   -0.0000 </r>
       <r>    6.6226    0.0000 </r>
      </set>
      <set comment="kpoint 22">
       <r>   -0.4760    1.0000 </r>
       <r>    0.1465    1.0184 </r>
       <r>    3.8255   -0.0000 </r>
       <r>    7.0906    0.0000 </r>
       <r>    7.9199    0.0000 </r>
      </set>
      <set comment="kpoint 23">
       <r>   -1.1058    1.0000 </r>
       <r>    1.7764   -0.0000 </r>
       <r>    2.2364   -0.0000 </r>
       <r>    6.5364    0.0000 </r>
       <r>    7.3041    0.0000 </r>
      </set>
      <set comment="kpoint 24">
       <r>   -0.6692    1.0000 </r>
       <r>    1.1689   -0.0000 </r>
       <r>    2.4683   -0.0000 </r>
       <r>    6.9174    0.0000 </r>
       <r>    7.7453    0.0000 </r>
      </set>
      <set comment="kpoint 25">
       <r>   -0.1402    1.0000 </r>
       <r>    0.4767    0.5448 </r>
       <r>    2.9611   -0.0000 </r>
       <r>    3.5571   -0.0000 </r>
       <r>    7.3819    0.0000 </r>
      </set>
      <set comment="kpoint 26">
       <r>   -0.2361    1.0000 </r>
       <r>    1.4172   -0.0000 </r>
       <r>    1.8516   -0.0000 </r>
       <r>    3.4667   -0.0000 </r>
       <r>    7.2947    0.0000 </r>
      </set>
      <set comment="kpoint 27">
       <r>    0.2871    1.0252 </r>
       <r>    0.8896   -0.0077 </r>
       <r>    2.1876   -0.0000 </r>
       <r>    2.7772   -0.0000 </r>
       <r>    7.7497    0.0000 </r>
      </set>
      <set comment="kpoint 28">
       <r>    0.7962   -0.0256 </r>
       <r>    1.2377   -0.0000 </r>
       <r>    1.6562   -0.0000 </r>
       <r>    2.0934   -0.0000 </r>
       <r>    8.1703    0.0000 </r>
      </set>
      <set comment="kpoint 29">
       <r>   -2.5346    1.0000 </r>
       <r>    3.9853   -0.0000 </r>
       <r>    3.9853   -0.0000 </r>
       <r>    4.7779   -0.0000 </r>
       <r>    6.3706    0.0000 </r>
      </set>
      <set comment="kpoint 30">
       <r>   -2.3853    1.0000 </r>
       <r>    3.1208   -0.0000 </r>
       <r>    4.1219   -0.0000 </r>
       <r>    4.7854   -0.0000 </r>
       <r>    6.5062    0.0000 </r>
      </set>
      <set comment="kpoint 31">
       <r>   -2.1372    1.0000 </r>
       <r>    2.1965   -0.0000 </r>
       <r>    4.3496   -0.0000 </r>
       <r>    4.9877   -0.0000 </r>
       <r>    6.7324    0.0000 </r>
      </set>
      <set comment="kpoint 32">
       <r>   -1.7915    1.0000 </r>
       <r>    1.3248   -0.0000 </r>
       <r>    4.6683   -0.0000 </r>
       <r>    5.2953   -0.0000 </r>
       <r>    7.0498    0.0000 </r>
      </set>
      <set comment="kpoint 33">
       <r>   -1.3498    1.0000 </r>
       <r>    0.5273    0.3345 </r>
       <r>    5.0781   -0.0000 </r>
       <r>    5.6952   -0.0000 </r>
       <r>    6.8532    0.0000 </r>
      </set>
      <set comment="kpoint 34">
       <r>   -0.8142    1.0000 </r>
       <r>   -0.1873    1.0000 </r>
       <r>    5.5789   -0.0000 </r>
       <r>    6.1707    0.0000 </r>
       <r>    6.1833    0.0000 </r>
      </set>
      <set comment="kpoint 35">
       <r>   -2.2363    1.0000 </r>
       <r>    3.0828   -0.0000 </r>
       <r>    3.4935   -0.0000 </r>
       <r>    4.7240   -0.0000 </r>
       <r>    6.9149    0.0000 </r>
      </set>
      <set comment="kpoint 36">
       <r>   -1.9888    1.0000 </r>
       <r>    2.3171   -0.0000 </r>
       <r>    3.5668   -0.0000 </r>
       <r>    4.9211   -0.0000 </r>
       <r>    7.1874    0.0000 </r>
      </set>
      <set comment="kpoint 37">
       <r>   -1.6439    1.0000 </r>
       <r>    1.4608   -0.0000 </r>
       <r>    3.8719   -0.0000 </r>
       <r>    5.2296   -0.0000 </r>
       <r>    6.8188    0.0000 </r>
      </set>
      <set comment="kpoint 38">
       <r>   -1.2033    1.0000 </r>
       <r>    0.6682   -0.0122 </r>
       <r>    4.2789   -0.0000 </r>
       <r>    5.6323   -0.0000 </r>
       <r>    6.0511    0.0000 </r>
      </set>
      <set comment="kpoint 39">
       <r>   -0.6690    1.0000 </r>
       <r>   -0.0439    1.0006 </r>
       <r>    4.7793   -0.0000 </r>
       <r>    5.3705   -0.0000 </r>
       <r>    6.1240    0.0000 </r>
      </set>
      <set comment="kpoint 40">
       <r>   -1.7423    1.0000 </r>
       <r>    2.3613   -0.0000 </r>
       <r>    2.8308   -0.0000 </r>
       <r>    5.1185   -0.0000 </r>
       <r>    6.7582    0.0000 </r>
      </set>
      <set comment="kpoint 41">
       <r>   -1.3987    1.0000 </r>
       <r>    1.6771   -0.0000 </r>
       <r>    2.9672   -0.0000 </r>
       <r>    5.4264   -0.0000 </r>
       <r>    5.9093   -0.0000 </r>
      </set>
      <set comment="kpoint 42">
       <r>   -0.9599    1.0000 </r>
       <r>    0.9006   -0.0064 </r>
       <r>    3.3631   -0.0000 </r>
       <r>    5.1403   -0.0000 </r>
       <r>    5.8277   -0.0000 </r>
      </set>
      <set comment="kpoint 43">
       <r>   -0.4279    1.0000 </r>
       <r>    0.1940    1.0291 </r>
       <r>    3.8636   -0.0000 </r>
       <r>    4.4573   -0.0000 </r>
       <r>    6.3170    0.0000 </r>
      </set>
      <set comment="kpoint 44">
       <r>   -1.0571    1.0000 </r>
       <r>    1.8213   -0.0000 </r>
       <r>    2.2804   -0.0000 </r>
       <r>    5.0583   -0.0000 </r>
       <r>    5.7322   -0.0000 </r>
      </set>
      <set comment="kpoint 45">
       <r>   -0.6209    1.0000 </r>
       <r>    1.2150   -0.0000 </r>
       <r>    2.5125   -0.0000 </r>
       <r>    4.2861   -0.0000 </r>
       <r>    6.1301    0.0000 </r>
      </set>
      <set comment="kpoint 46">
       <r>   -0.0924    1.0002 </r>
       <r>    0.5238    0.3483 </r>
       <r>    3.0047   -0.0000 </r>
       <r>    3.5998   -0.0000 </r>
       <r>    6.6133    0.0000 </r>
      </set>
      <set comment="kpoint 47">
       <r>   -0.1882    1.0000 </r>
       <r>    1.4619   -0.0000 </r>
       <r>    1.8987   -0.0000 </r>
       <r>    3.5105   -0.0000 </r>
       <r>    6.5215    0.0000 </r>
      </set>
      <set comment="kpoint 48">
       <r>    0.3345    0.9803 </r>
       <r>    0.9360   -0.0034 </r>
       <r>    2.2336   -0.0000 </r>
       <r>    2.8221   -0.0000 </r>
       <r>    6.9906    0.0000 </r>
      </set>
      <set comment="kpoint 49">
       <r>    0.8427   -0.0153 </r>
       <r>    1.2825   -0.0000 </r>
       <r>    1.7044   -0.0000 </r>
       <r>    2.1398   -0.0000 </r>
       <r>    7.4154    0.0000 </r>
      </set>
      <set comment="kpoint 50">
       <r>   -2.0877    1.0000 </r>
       <r>    3.2184   -0.0000 </r>
       <r>    3.2184   -0.0000 </r>
       <r>    4.1232   -0.0000 </r>
       <r>    8.5224    0.0000 </r>
      </set>
      <set comment="kpoint 51">
       <r>   -1.8408    1.0000 </r>
       <r>    2.4400   -0.0000 </r>
       <r>    3.4446   -0.0000 </r>
       <r>    4.1775   -0.0000 </r>
       <r>    7.5739    0.0000 </r>
      </set>
      <set comment="kpoint 52">
       <r>   -1.4967    1.0000 </r>
       <r>    1.5963   -0.0000 </r>
       <r>    3.7614   -0.0000 </r>
       <r>    4.4641   -0.0000 </r>
       <r>    6.7116    0.0000 </r>
      </set>
      <set comment="kpoint 53">
       <r>   -1.0571    1.0000 </r>
       <r>    0.8086   -0.0228 </r>
       <r>    4.1691   -0.0000 </r>
       <r>    4.8664   -0.0000 </r>
       <r>    6.6053    0.0000 </r>
      </set>
      <set comment="kpoint 54">
       <r>   -0.5242    1.0000 </r>
       <r>    0.0991    1.0096 </r>
       <r>    4.6679   -0.0000 </r>
       <r>    5.3633   -0.0000 </r>
       <r>    5.9460   -0.0000 </r>
      </set>
      <set comment="kpoint 55">
       <r>   -1.5948    1.0000 </r>
       <r>    2.4964   -0.0000 </r>
       <r>    2.9008   -0.0000 </r>
       <r>    4.1671   -0.0000 </r>
       <r>    6.8335    0.0000 </r>
      </set>
      <set comment="kpoint 56">
       <r>   -1.2521    1.0000 </r>
       <r>    1.8118   -0.0000 </r>
       <r>    3.0658   -0.0000 </r>
       <r>    4.4487   -0.0000 </r>
       <r>    5.9985    0.0000 </r>
      </set>
      <set comment="kpoint 57">
       <r>   -0.8144    1.0000 </r>
       <r>    1.0401   -0.0003 </r>
       <r>    3.4633   -0.0000 </r>
       <r>    4.8487   -0.0000 </r>
       <r>    5.2334   -0.0000 </r>
      </set>
      <set comment="kpoint 58">
       <r>   -0.2838    1.0000 </r>
       <r>    0.3363    0.9777 </r>
       <r>    3.9620   -0.0000 </r>
       <r>    4.5532   -0.0000 </r>
       <r>    5.3432   -0.0000 </r>
      </set>
      <set comment="kpoint 59">
       <r>   -0.9114    1.0000 </r>
       <r>    1.9560   -0.0000 </r>
       <r>    2.4063   -0.0000 </r>
       <r>    4.7291   -0.0000 </r>
       <r>    5.1719   -0.0000 </r>
      </set>
      <set comment="kpoint 60">
       <r>   -0.4762    1.0000 </r>
       <r>    1.3528   -0.0000 </r>
       <r>    2.6416   -0.0000 </r>
       <r>    4.4070   -0.0000 </r>
       <r>    5.1252   -0.0000 </r>
      </set>
      <set comment="kpoint 61">
       <r>    0.0507    1.0042 </r>
       <r>    0.6649   -0.0092 </r>
       <r>    3.1321   -0.0000 </r>
       <r>    3.7246   -0.0000 </r>
       <r>    5.6126   -0.0000 </r>
      </set>
      <set comment="kpoint 62">
       <r>   -0.0448    1.0005 </r>
       <r>    1.5964   -0.0000 </r>
       <r>    2.0380   -0.0000 </r>
       <r>    3.6397   -0.0000 </r>
       <r>    5.5140   -0.0000 </r>
      </set>
      <set comment="kpoint 63">
       <r>    0.4761    0.5472 </r>
       <r>    1.0750   -0.0001 </r>
       <r>    2.3701   -0.0000 </r>
       <r>    2.9556   -0.0000 </r>
       <r>    5.9857    0.0000 </r>
      </set>
      <set comment="kpoint 64">
       <r>    0.9820   -0.0013 </r>
       <r>    1.4168   -0.0000 </r>
       <r>    1.8477   -0.0000 </r>
       <r>    2.2779   -0.0000 </r>
       <r>    6.4094    0.0000 </r>
      </set>
      <set comment="kpoint 65">
       <r>   -1.3499    1.0000 </r>
       <r>    2.7216   -0.0000 </r>
       <r>    2.7216   -0.0000 </r>
       <r>    3.6230   -0.0000 </r>
       <r>    6.8425    0.0000 </r>
      </set>
      <set comment="kpoint 66">
       <r>   -1.0086    1.0000 </r>
       <r>    2.0278   -0.0000 </r>
       <r>    3.0373   -0.0000 </r>
       <r>    3.7652   -0.0000 </r>
       <r>    6.4832    0.0000 </r>
      </set>
      <set comment="kpoint 67">
       <r>   -0.5726    1.0000 </r>
       <r>    1.2699   -0.0000 </r>
       <r>    3.4436   -0.0000 </r>
       <r>    4.1457   -0.0000 </r>
       <r>    5.8558   -0.0000 </r>
      </set>
      <set comment="kpoint 68">
       <r>   -0.0445    1.0006 </r>
       <r>    0.5721    0.1746 </r>
       <r>    3.9409   -0.0000 </r>
       <r>    4.6388   -0.0000 </r>
       <r>    5.2171   -0.0000 </r>
      </set>
      <set comment="kpoint 69">
       <r>   -0.6693    1.0000 </r>
       <r>    2.1806   -0.0000 </r>
       <r>    2.5744   -0.0000 </r>
       <r>    3.8421   -0.0000 </r>
       <r>    5.3344   -0.0000 </r>
      </set>
      <set comment="kpoint 70">
       <r>   -0.2360    1.0000 </r>
       <r>    1.5804   -0.0000 </r>
       <r>    2.8338   -0.0000 </r>
       <r>    4.2143   -0.0000 </r>
       <r>    4.5873   -0.0000 </r>
      </set>
      <set comment="kpoint 71">
       <r>    0.2883    1.0246 </r>
       <r>    0.8986   -0.0066 </r>
       <r>    3.3231   -0.0000 </r>
       <r>    3.9113   -0.0000 </r>
       <r>    4.6994   -0.0000 </r>
      </set>
      <set comment="kpoint 72">
       <r>    0.1933    1.0290 </r>
       <r>    1.8206   -0.0000 </r>
       <r>    2.2600   -0.0000 </r>
       <r>    3.8469   -0.0000 </r>
       <r>    4.5793   -0.0000 </r>
      </set>
      <set comment="kpoint 73">
       <r>    0.7112   -0.0335 </r>
       <r>    1.3055   -0.0000 </r>
       <r>    2.5913   -0.0000 </r>
       <r>    3.1717   -0.0000 </r>
       <r>    5.0479   -0.0000 </r>
      </set>
      <set comment="kpoint 74">
       <r>    1.2133   -0.0000 </r>
       <r>    1.6408   -0.0000 </r>
       <r>    2.0814   -0.0000 </r>
       <r>    2.5042   -0.0000 </r>
       <r>    5.4669   -0.0000 </r>
      </set>
      <set comment="kpoint 75">
       <r>   -0.3320    1.0000 </r>
       <r>    2.4954   -0.0000 </r>
       <r>    2.4954   -0.0000 </r>
       <r>    3.3755   -0.0000 </r>
       <r>    5.4335   -0.0000 </r>
      </set>
      <set comment="kpoint 76">
       <r>    0.0983    1.0095 </r>
       <r>    1.8891   -0.0000 </r>
       <r>    2.9008   -0.0000 </r>
       <r>    3.6102   -0.0000 </r>
       <r>    5.1661   -0.0000 </r>
      </set>
      <set comment="kpoint 77">
       <r>    0.6185    0.0564 </r>
       <r>    1.2222   -0.0000 </r>
       <r>    3.3970   -0.0000 </r>
       <r>    4.0736   -0.0000 </r>
       <r>    4.6231   -0.0000 </r>
      </set>
      <set comment="kpoint 78">
       <r>    0.5245    0.3457 </r>
       <r>    2.1349   -0.0000 </r>
       <r>    2.5237   -0.0000 </r>
       <r>    3.7753   -0.0000 </r>
       <r>    4.1054   -0.0000 </r>
      </set>
      <set comment="kpoint 79">
       <r>    1.0379   -0.0003 </r>
       <r>    1.6249   -0.0000 </r>
       <r>    2.8743   -0.0000 </r>
       <r>    3.4492   -0.0000 </r>
       <r>    4.2194   -0.0000 </r>
      </set>
      <set comment="kpoint 80">
       <r>    1.5345   -0.0000 </r>
       <r>    1.9549   -0.0000 </r>
       <r>    2.3931   -0.0000 </r>
       <r>    2.8089   -0.0000 </r>
       <r>    4.6149   -0.0000 </r>
      </set>
      <set comment="kpoint 81">
       <r>    0.9461   -0.0028 </r>
       <r>    2.5396   -0.0000 </r>
       <r>    2.5396   -0.0000 </r>
       <r>    3.3888   -0.0000 </r>
       <r>    4.2997   -0.0000 </r>
      </set>
      <set comment="kpoint 82">
       <r>    1.4523   -0.0000 </r>
       <r>    2.0240   -0.0000 </r>
       <r>    3.0351   -0.0000 </r>
       <r>    3.6859   -0.0000 </r>
       <r>    4.1200   -0.0000 </r>
      </set>
      <set comment="kpoint 83">
       <r>    1.9417   -0.0000 </r>
       <r>    2.3592   -0.0000 </r>
       <r>    2.7404   -0.0000 </r>
       <r>    3.1613   -0.0000 </r>
       <r>    3.8813   -0.0000 </r>
      </set>
      <set comment="kpoint 84">
       <r>    2.4202   -0.0000 </r>
       <r>    2.8543   -0.0000 </r>
       <r>    2.8543   -0.0000 </r>
       <r>    3.4405   -0.0000 </r>
       <r>    3.4677   -0.0000 </r>
      </set>
     </set>
    </set>
   </array>
  </eigenvalues>
  <separator name="orbital magnetization" >
   <v name="MAGDIPOLOUT">      0.00000000      0.00000000      0.00000000</v>
  </separator>
  <dos>
   <i name="efermi">      0.48730517 </i>
   <total>
    <array>
     <dimension dim="1">gridpoints</dimension>
     <dimension dim="2">spin</dimension>
     <field>energy</field>
     <field>total</field>
     <field>integrated</field>
     <set>
      <set comment="spin 1">
       <r>    -4.6843     0.0000     0.0000 </r>
       <r>    -4.6336     0.0000     0.0000 </r>
       <r>    -4.5829     0.0000     0.0000 </r>
       <r>    -4.5323     0.0000     0.0000 </r>
       <r>    -4.4816     0.0000     0.0000 </r>
       <r>    -4.4309     0.0000     0.0000 </r>
       <r>    -4.3802     0.0000     0.0000 </r>
       <r>    -4.3295    -0.0000    -0.0000 </r>
       <r>    -4.2788    -0.0000    -0.0000 </r>
       <r>    -4.2281    -0.0000    -0.0000 </r>
       <r>    -4.1774    -0.0000    -0.0000 </r>
       <r>    -4.1267    -0.0000    -0.0000 </r>
       <r>    -4.0761    -0.0000    -0.0000 </r>
       <r>    -4.0254    -0.0000    -0.0000 </r>
       <r>    -3.9747    -0.0000    -0.0000 </r>
       <r>    -3.9240    -0.0000    -0.0000 </r>
       <r>    -3.8733    -0.0000    -0.0000 </r>
       <r>    -3.8226    -0.0000    -0.0000 </r>
       <r>    -3.7719    -0.0000    -0.0000 </r>
       <r>    -3.7212    -0.0000    -0.0000 </r>
       <r>    -3.6705    -0.0000    -0.0000 </r>
       <r>    -3.6199    -0.0000    -0.0000 </r>
       <r>    -3.5692    -0.0000    -0.0000 </r>
       <r>    -3.5185    -0.0000    -0.0000 </r>
       <r>    -3.4678    -0.0000    -0.0000 </r>
       <r>    -3.4171    -0.0000    -0.0000 </r>
       <r>    -3.3664    -0.0000    -0.0000 </r>
       <r>    -3.3157    -0.0000    -0.0000 </r>
       <r>    -3.2650    -0.0000    -0.0000 </r>
       <r>    -3.2143    -0.0000    -0.0000 </r>
       <r>    -3.1637    -0.0001    -0.0000 </r>
       <r>    -3.1130    -0.0003    -0.0000 </r>
       <r>    -3.0623    -0.0008    -0.0001 </r>
       <r>    -3.0116    -0.0019    -0.0002 </r>
       <r>    -2.9609    -0.0036    -0.0003 </r>
       <r>    -2.9102    -0.0055    -0.0006 </r>
       <r>    -2.8595    -0.0063    -0.0009 </r>
       <r>    -2.8088    -0.0031    -0.0011 </r>
       <r>    -2.7581     0.0077    -0.0007 </r>
       <r>    -2.7074     0.0288     0.0008 </r>
       <r>    -2.6568     0.0610     0.0039 </r>
       <r>    -2.6061     0.1021     0.0090 </r>
       <r>    -2.5554     0.1475     0.0165 </r>
       <r>    -2.5047     0.1913     0.0262 </r>
       <r>    -2.4540     0.2286     0.0378 </r>
       <r>    -2.4033     0.2575     0.0508 </r>
       <r>    -2.3526     0.2811     0.0651 </r>
       <r>    -2.3019     0.3047     0.0805 </r>
       <r>    -2.2512     0.3313     0.0973 </r>
       <r>    -2.2006     0.3588     0.1155 </r>
       <r>    -2.1499     0.3815     0.1348 </r>
       <r>    -2.0992     0.3953     0.1549 </r>
       <r>    -2.0485     0.4010     0.1752 </r>
       <r>    -1.9978     0.4045     0.1957 </r>
       <r>    -1.9471     0.4147     0.2167 </r>
       <r>    -1.8964     0.4389     0.2390 </r>
       <r>    -1.8457     0.4768     0.2631 </r>
       <r>    -1.7950     0.5172     0.2894 </r>
       <r>    -1.7444     0.5436     0.3169 </r>
       <r>    -1.6937     0.5438     0.3445 </r>
       <r>    -1.6430     0.5207     0.3709 </r>
       <r>    -1.5923     0.4929     0.3959 </r>
       <r>    -1.5416     0.4857     0.4205 </r>
       <r>    -1.4909     0.5143     0.4466 </r>
       <r>    -1.4402     0.5733     0.4756 </r>
       <r>    -1.3895     0.6381     0.5080 </r>
       <r>    -1.3388     0.6811     0.5425 </r>
       <r>    -1.2882     0.6872     0.5773 </r>
       <r>    -1.2375     0.6605     0.6108 </r>
       <r>    -1.1868     0.6211     0.6423 </r>
       <r>    -1.1361     0.5949     0.6724 </r>
       <r>    -1.0854     0.5998     0.7028 </r>
       <r>    -1.0347     0.6334     0.7349 </r>
       <r>    -0.9840     0.6758     0.7692 </r>
       <r>    -0.9333     0.7049     0.8049 </r>
       <r>    -0.8826     0.7141     0.8411 </r>
       <r>    -0.8320     0.7160     0.8774 </r>
       <r>    -0.7813     0.7303     0.9144 </r>
       <r>    -0.7306     0.7655     0.9532 </r>
       <r>    -0.6799     0.8106     0.9943 </r>
       <r>    -0.6292     0.8426     1.0370 </r>
       <r>    -0.5785     0.8422     1.0797 </r>
       <r>    -0.5278     0.8050     1.1205 </r>
       <r>    -0.4771     0.7439     1.1582 </r>
       <r>    -0.4264     0.6845     1.1929 </r>
       <r>    -0.3758     0.6576     1.2263 </r>
       <r>    -0.3251     0.6854     1.2610 </r>
       <r>    -0.2744     0.7675     1.2999 </r>
       <r>    -0.2237     0.8773     1.3444 </r>
       <r>    -0.1730     0.9758     1.3939 </r>
       <r>    -0.1223     1.0309     1.4461 </r>
       <r>    -0.0716     1.0298     1.4983 </r>
       <r>    -0.0209     0.9810     1.5480 </r>
       <r>     0.0298     0.9084     1.5941 </r>
       <r>     0.0804     0.8421     1.6368 </r>
       <r>     0.1311     0.8054     1.6776 </r>
       <r>     0.1818     0.8049     1.7184 </r>
       <r>     0.2325     0.8297     1.7604 </r>
       <r>     0.2832     0.8619     1.8041 </r>
       <r>     0.3339     0.8923     1.8494 </r>
       <r>     0.3846     0.9266     1.8963 </r>
       <r>     0.4353     0.9762     1.9458 </r>
       <r>     0.4860     1.0403     1.9985 </r>
       <r>     0.5366     1.0975     2.0542 </r>
       <r>     0.5873     1.1184     2.1109 </r>
       <r>     0.6380     1.0892     2.1661 </r>
       <r>     0.6887     1.0270     2.2181 </r>
       <r>     0.7394     0.9732     2.2675 </r>
       <r>     0.7901     0.9683     2.3166 </r>
       <r>     0.8408     1.0215     2.3683 </r>
       <r>     0.8915     1.1002     2.4241 </r>
       <r>     0.9422     1.1514     2.4825 </r>
       <r>     0.9928     1.1406     2.5403 </r>
       <r>     1.0435     1.0781     2.5949 </r>
       <r>     1.0942     1.0127     2.6463 </r>
       <r>     1.1449     0.9965     2.6968 </r>
       <r>     1.1956     1.0480     2.7499 </r>
       <r>     1.2463     1.1396     2.8077 </r>
       <r>     1.2970     1.2188     2.8694 </r>
       <r>     1.3477     1.2466     2.9326 </r>
       <r>     1.3984     1.2235     2.9946 </r>
       <r>     1.4490     1.1831     3.0546 </r>
       <r>     1.4997     1.1620     3.1135 </r>
       <r>     1.5504     1.1708     3.1729 </r>
       <r>     1.6011     1.1873     3.2330 </r>
       <r>     1.6518     1.1792     3.2928 </r>
       <r>     1.7025     1.1342     3.3503 </r>
       <r>     1.7532     1.0691     3.4045 </r>
       <r>     1.8039     1.0110     3.4557 </r>
       <r>     1.8546     0.9724     3.5050 </r>
       <r>     1.9052     0.9470     3.5530 </r>
       <r>     1.9559     0.9279     3.6001 </r>
       <r>     2.0066     0.9242     3.6469 </r>
       <r>     2.0573     0.9573     3.6954 </r>
       <r>     2.1080     1.0427     3.7483 </r>
       <r>     2.1587     1.1738     3.8078 </r>
       <r>     2.2094     1.3213     3.8748 </r>
       <r>     2.2601     1.4472     3.9481 </r>
       <r>     2.3108     1.5236     4.0254 </r>
       <r>     2.3614     1.5425     4.1035 </r>
       <r>     2.4121     1.5108     4.1801 </r>
       <r>     2.4628     1.4359     4.2529 </r>
       <r>     2.5135     1.3194     4.3198 </r>
       <r>     2.5642     1.1677     4.3790 </r>
       <r>     2.6149     1.0111     4.4302 </r>
       <r>     2.6656     0.9070     4.4762 </r>
       <r>     2.7163     0.9127     4.5225 </r>
       <r>     2.7670     1.0465     4.5755 </r>
       <r>     2.8176     1.2697     4.6399 </r>
       <r>     2.8683     1.5070     4.7163 </r>
       <r>     2.9190     1.6868     4.8018 </r>
       <r>     2.9697     1.7690     4.8914 </r>
       <r>     3.0204     1.7430     4.9798 </r>
       <r>     3.0711     1.6155     5.0617 </r>
       <r>     3.1218     1.4082     5.1331 </r>
       <r>     3.1725     1.1681     5.1923 </r>
       <r>     3.2232     0.9680     5.2413 </r>
       <r>     3.2738     0.8823     5.2861 </r>
       <r>     3.3245     0.9456     5.3340 </r>
       <r>     3.3752     1.1270     5.3911 </r>
       <r>     3.4259     1.3420     5.4591 </r>
       <r>     3.4766     1.4953     5.5349 </r>
       <r>     3.5273     1.5294     5.6125 </r>
       <r>     3.5780     1.4496     5.6859 </r>
       <r>     3.6287     1.3170     5.7527 </r>
       <r>     3.6794     1.2150     5.8143 </r>
       <r>     3.7300     1.2032     5.8753 </r>
       <r>     3.7807     1.2814     5.9402 </r>
       <r>     3.8314     1.3867     6.0105 </r>
       <r>     3.8821     1.4337     6.0832 </r>
       <r>     3.9328     1.3763     6.1529 </r>
       <r>     3.9835     1.2456     6.2161 </r>
       <r>     4.0342     1.1302     6.2734 </r>
       <r>     4.0849     1.1105     6.3297 </r>
       <r>     4.1356     1.1991     6.3904 </r>
       <r>     4.1862     1.3347     6.4581 </r>
       <r>     4.2369     1.4298     6.5306 </r>
       <r>     4.2876     1.4325     6.6032 </r>
       <r>     4.3383     1.3549     6.6719 </r>
       <r>     4.3890     1.2537     6.7354 </r>
       <r>     4.4397     1.1878     6.7956 </r>
       <r>     4.4904     1.1844     6.8557 </r>
       <r>     4.5411     1.2349     6.9182 </r>
       <r>     4.5918     1.3089     6.9846 </r>
       <r>     4.6424     1.3725     7.0542 </r>
       <r>     4.6931     1.3967     7.1250 </r>
       <r>     4.7438     1.3628     7.1940 </r>
       <r>     4.7945     1.2666     7.2582 </r>
       <r>     4.8452     1.1265     7.3153 </r>
       <r>     4.8959     0.9866     7.3654 </r>
       <r>     4.9466     0.9059     7.4113 </r>
       <r>     4.9973     0.9308     7.4585 </r>
       <r>     5.0480     1.0669     7.5125 </r>
       <r>     5.0986     1.2714     7.5770 </r>
       <r>     5.1493     1.4755     7.6518 </r>
       <r>     5.2000     1.6212     7.7339 </r>
       <r>     5.2507     1.6815     7.8192 </r>
       <r>     5.3014     1.6566     7.9032 </r>
       <r>     5.3521     1.5588     7.9822 </r>
       <r>     5.4028     1.4091     8.0536 </r>
       <r>     5.4535     1.2417     8.1165 </r>
       <r>     5.5042     1.0990     8.1722 </r>
       <r>     5.5548     1.0107     8.2235 </r>
       <r>     5.6055     0.9762     8.2729 </r>
       <r>     5.6562     0.9725     8.3222 </r>
       <r>     5.7069     0.9803     8.3719 </r>
       <r>     5.7576     1.0027     8.4228 </r>
       <r>     5.8083     1.0582     8.4764 </r>
       <r>     5.8590     1.1574     8.5351 </r>
       <r>     5.9097     1.2854     8.6002 </r>
       <r>     5.9604     1.4029     8.6713 </r>
       <r>     6.0110     1.4640     8.7455 </r>
       <r>     6.0617     1.4414     8.8186 </r>
       <r>     6.1124     1.3424     8.8866 </r>
       <r>     6.1631     1.2059     8.9478 </r>
       <r>     6.2138     1.0782     9.0024 </r>
       <r>     6.2645     0.9856     9.0524 </r>
       <r>     6.3152     0.9241     9.0992 </r>
       <r>     6.3659     0.8733     9.1435 </r>
       <r>     6.4166     0.8220     9.1852 </r>
       <r>     6.4672     0.7804     9.2247 </r>
       <r>     6.5179     0.7709     9.2638 </r>
       <r>     6.5686     0.8081     9.3048 </r>
       <r>     6.6193     0.8875     9.3497 </r>
       <r>     6.6700     0.9879     9.3998 </r>
       <r>     6.7207     1.0797     9.4545 </r>
       <r>     6.7714     1.1336     9.5120 </r>
       <r>     6.8221     1.1271     9.5691 </r>
       <r>     6.8728     1.0532     9.6225 </r>
       <r>     6.9234     0.9250     9.6694 </r>
       <r>     6.9741     0.7714     9.7085 </r>
       <r>     7.0248     0.6238     9.7401 </r>
       <r>     7.0755     0.5038     9.7657 </r>
       <r>     7.1262     0.4180     9.7869 </r>
       <r>     7.1769     0.3625     9.8052 </r>
       <r>     7.2276     0.3291     9.8219 </r>
       <r>     7.2783     0.3093     9.8376 </r>
       <r>     7.3290     0.2945     9.8525 </r>
       <r>     7.3796     0.2761     9.8665 </r>
       <r>     7.4303     0.2485     9.8791 </r>
       <r>     7.4810     0.2137     9.8899 </r>
       <r>     7.5317     0.1816     9.8991 </r>
       <r>     7.5824     0.1645     9.9075 </r>
       <r>     7.6331     0.1682     9.9160 </r>
       <r>     7.6838     0.1874     9.9255 </r>
       <r>     7.7345     0.2083     9.9361 </r>
       <r>     7.7852     0.2163     9.9470 </r>
       <r>     7.8358     0.2044     9.9574 </r>
       <r>     7.8865     0.1752     9.9663 </r>
       <r>     7.9372     0.1372     9.9732 </r>
       <r>     7.9879     0.1002     9.9783 </r>
       <r>     8.0386     0.0713     9.9819 </r>
       <r>     8.0893     0.0535     9.9846 </r>
       <r>     8.1400     0.0449     9.9869 </r>
       <r>     8.1907     0.0400     9.9889 </r>
       <r>     8.2414     0.0337     9.9906 </r>
       <r>     8.2920     0.0251     9.9919 </r>
       <r>     8.3427     0.0175     9.9928 </r>
       <r>     8.3934     0.0151     9.9936 </r>
       <r>     8.4441     0.0186     9.9945 </r>
       <r>     8.4948     0.0247     9.9958 </r>
       <r>     8.5455     0.0282     9.9972 </r>
       <r>     8.5962     0.0263     9.9985 </r>
       <r>     8.6469     0.0194     9.9995 </r>
       <r>     8.6976     0.0108    10.0001 </r>
       <r>     8.7482     0.0038    10.0002 </r>
       <r>     8.7989    -0.0002    10.0002 </r>
       <r>     8.8496    -0.0016    10.0002 </r>
       <r>     8.9003    -0.0015    10.0001 </r>
       <r>     8.9510    -0.0009    10.0000 </r>
       <r>     9.0017    -0.0004    10.0000 </r>
       <r>     9.0524    -0.0002    10.0000 </r>
       <r>     9.1031    -0.0001    10.0000 </r>
       <r>     9.1538    -0.0000    10.0000 </r>
       <r>     9.2044    -0.0000    10.0000 </r>
       <r>     9.2551    -0.0000    10.0000 </r>
       <r>     9.3058    -0.0000    10.0000 </r>
       <r>     9.3565    -0.0000    10.0000 </r>
       <r>     9.4072    -0.0000    10.0000 </r>
       <r>     9.4579    -0.0000    10.0000 </r>
       <r>     9.5086    -0.0000    10.0000 </r>
       <r>     9.5593    -0.0000    10.0000 </r>
       <r>     9.6100    -0.0000    10.0000 </r>
       <r>     9.6606    -0.0000    10.0000 </r>
       <r>     9.7113    -0.0000    10.0000 </r>
       <r>     9.7620    -0.0000    10.0000 </r>
       <r>     9.8127     0.0000    10.0000 </r>
       <r>     9.8634     0.0000    10.0000 </r>
       <r>     9.9141     0.0000    10.0000 </r>
       <r>     9.9648     0.0000    10.0000 </r>
       <r>    10.0155     0.0000    10.0000 </r>
       <r>    10.0662     0.0000    10.0000 </r>
       <r>    10.1168     0.0000    10.0000 </r>
       <r>    10.1675     0.0000    10.0000 </r>
       <r>    10.2182     0.0000    10.0000 </r>
       <r>    10.2689     0.0000    10.0000 </r>
       <r>    10.3196     0.0000    10.0000 </r>
       <r>    10.3703     0.0000    10.0000 </r>
       <r>    10.4210     0.0000    10.0000 </r>
       <r>    10.4717     0.0000    10.0000 </r>
       <r>    10.5224     0.0000    10.0000 </r>
      </set>
     </set>
    </array>
   </total>
  </dos>
 </calculation>
 <structure name="finalpos" >
  <crystal>
   <varray name="basis" >
    <v>       4.28200006       0.00000000       0.00000000 </v>
    <v>       0.00000000       4.28200006       0.00000000 </v>
    <v>       0.00000000       0.00000000       4.28200006 </v>
   </varray>
   <i name="volume">     78.51271733 </i>
   <varray name="rec_basis" >
    <v>       0.23353573       0.00000000       0.00000000 </v>
    <v>       0.00000000       0.23353573       0.00000000 </v>
    <v>       0.00000000       0.00000000       0.23353573 </v>
   </varray>
  </crystal>
  <varray name="positions" >
   <v>       0.00000000       0.00000000       0.00000000 </v>
   <v>       0.50000000       0.50000000       0.50000000 </v>
  </varray>
 </structure>
</modeling>
