<?xml version="1.0" encoding="ISO-8859-1"?>
<modeling>
 <generator>
  <i name="program" type="string">vasp </i>
  <i name="version" type="string">6.2.1  </i>
  <i name="subversion" type="string">16May21 (build Dec 20 2021 17:02:34) complex                          parallel </i>
  <i name="platform" type="string">LinuxGNU </i>
  <i name="date" type="string">2025 09 29 </i>
  <i name="time" type="string">12:11:04 </i>
 </generator>
 <incar>
  <i type="int" name="IBRION">     2</i>
  <i type="int" name="NSW">   100</i>
  <i type="int" name="ISIF">     3</i>
  <i name="ENCUT">    500.00000000</i>
  <i type="logical" name="LVTOT"> T  </i>
  <i type="logical" name="LVHAR"> T  </i>
 </incar>
 <primitive_cell>
  <structure name="primitive_cell" >
   <crystal>
    <varray name="basis" >
     <v>       2.14100003       2.14100003      -2.14100003 </v>
     <v>      -2.14100003       2.14100003       2.14100003 </v>
     <v>       2.14100003      -2.14100003       2.14100003 </v>
    </varray>
    <i name="volume">     39.25635866 </i>
    <varray name="rec_basis" >
     <v>       0.23353573       0.23353573      -0.00000000 </v>
     <v>       0.00000000       0.23353573       0.23353573 </v>
     <v>       0.23353573      -0.00000000       0.23353573 </v>
    </varray>
   </crystal>
   <varray name="positions" >
    <v>       0.00000000       0.00000000       0.00000000 </v>
   </varray>
  </structure>
  <varray name="primitive_index" >
   <v type="int" >        1 </v>
  </varray>
 </primitive_cell>
 <kpoints>
  <generation param="Monkhorst-Pack">
   <v type="int" name="divisions">      13       13       13 </v>
   <v name="usershift">      0.00000000       0.00000000       0.00000000 </v>
   <v name="genvec1">      0.07692308       0.00000000       0.00000000 </v>
   <v name="genvec2">      0.00000000       0.07692308       0.00000000 </v>
   <v name="genvec3">      0.00000000       0.00000000       0.07692308 </v>
   <v name="shift">      0.00000000       0.00000000       0.00000000 </v>
  </generation>
  <varray name="kpointlist" >
   <v>       0.00000000       0.00000000       0.00000000 </v>
   <v>       0.07692308       0.00000000       0.00000000 </v>
   <v>       0.15384615       0.00000000       0.00000000 </v>
   <v>       0.23076923       0.00000000       0.00000000 </v>
   <v>       0.30769231       0.00000000       0.00000000 </v>
   <v>       0.38461538       0.00000000       0.00000000 </v>
   <v>       0.46153846       0.00000000       0.00000000 </v>
   <v>       0.07692308       0.07692308       0.00000000 </v>
   <v>       0.15384615       0.07692308       0.00000000 </v>
   <v>       0.23076923       0.07692308       0.00000000 </v>
   <v>       0.30769231       0.07692308       0.00000000 </v>
   <v>       0.38461538       0.07692308       0.00000000 </v>
   <v>       0.46153846       0.07692308       0.00000000 </v>
   <v>       0.15384615       0.15384615       0.00000000 </v>
   <v>       0.23076923       0.15384615       0.00000000 </v>
   <v>       0.30769231       0.15384615       0.00000000 </v>
   <v>       0.38461538       0.15384615       0.00000000 </v>
   <v>       0.46153846       0.15384615       0.00000000 </v>
   <v>       0.23076923       0.23076923       0.00000000 </v>
   <v>       0.30769231       0.23076923       0.00000000 </v>
   <v>       0.38461538       0.23076923       0.00000000 </v>
   <v>       0.46153846       0.23076923       0.00000000 </v>
   <v>       0.30769231       0.30769231       0.00000000 </v>
   <v>       0.38461538       0.30769231       0.00000000 </v>
   <v>       0.46153846       0.30769231       0.00000000 </v>
   <v>       0.38461538       0.38461538       0.00000000 </v>
   <v>       0.46153846       0.38461538       0.00000000 </v>
   <v>       0.46153846       0.46153846       0.00000000 </v>
   <v>       0.07692308       0.07692308       0.07692308 </v>
   <v>       0.15384615       0.07692308       0.07692308 </v>
   <v>       0.23076923       0.07692308       0.07692308 </v>
   <v>       0.30769231       0.07692308       0.07692308 </v>
   <v>       0.38461538       0.07692308       0.07692308 </v>
   <v>       0.46153846       0.07692308       0.07692308 </v>
   <v>       0.15384615       0.15384615       0.07692308 </v>
   <v>       0.23076923       0.15384615       0.07692308 </v>
   <v>       0.30769231       0.15384615       0.07692308 </v>
   <v>       0.38461538       0.15384615       0.07692308 </v>
   <v>       0.46153846       0.15384615       0.07692308 </v>
   <v>       0.23076923       0.23076923       0.07692308 </v>
   <v>       0.30769231       0.23076923       0.07692308 </v>
   <v>       0.38461538       0.23076923       0.07692308 </v>
   <v>       0.46153846       0.23076923       0.07692308 </v>
   <v>       0.30769231       0.30769231       0.07692308 </v>
   <v>       0.38461538       0.30769231       0.07692308 </v>
   <v>       0.46153846       0.30769231       0.07692308 </v>
   <v>       0.38461538       0.38461538       0.07692308 </v>
   <v>       0.46153846       0.38461538       0.07692308 </v>
   <v>       0.46153846       0.46153846       0.07692308 </v>
   <v>       0.15384615       0.15384615       0.15384615 </v>
   <v>       0.23076923       0.15384615       0.15384615 </v>
   <v>       0.30769231       0.15384615       0.15384615 </v>
   <v>       0.38461538       0.15384615       0.15384615 </v>
   <v>       0.46153846       0.15384615       0.15384615 </v>
   <v>       0.23076923       0.23076923       0.15384615 </v>
   <v>       0.30769231       0.23076923       0.15384615 </v>
   <v>       0.38461538       0.23076923       0.15384615 </v>
   <v>       0.46153846       0.23076923       0.15384615 </v>
   <v>       0.30769231       0.30769231       0.15384615 </v>
   <v>       0.38461538       0.30769231       0.15384615 </v>
   <v>       0.46153846       0.30769231       0.15384615 </v>
   <v>       0.38461538       0.38461538       0.15384615 </v>
   <v>       0.46153846       0.38461538       0.15384615 </v>
   <v>       0.46153846       0.46153846       0.15384615 </v>
   <v>       0.23076923       0.23076923       0.23076923 </v>
   <v>       0.30769231       0.23076923       0.23076923 </v>
   <v>       0.38461538       0.23076923       0.23076923 </v>
   <v>       0.46153846       0.23076923       0.23076923 </v>
   <v>       0.30769231       0.30769231       0.23076923 </v>
   <v>       0.38461538       0.30769231       0.23076923 </v>
   <v>       0.46153846       0.30769231       0.23076923 </v>
   <v>       0.38461538       0.38461538       0.23076923 </v>
   <v>       0.46153846       0.38461538       0.23076923 </v>
   <v>       0.46153846       0.46153846       0.23076923 </v>
   <v>       0.30769231       0.30769231       0.30769231 </v>
   <v>       0.38461538       0.30769231       0.30769231 </v>
   <v>       0.46153846       0.30769231       0.30769231 </v>
   <v>       0.38461538       0.38461538       0.30769231 </v>
   <v>       0.46153846       0.38461538       0.30769231 </v>
   <v>       0.46153846       0.46153846       0.30769231 </v>
   <v>       0.38461538       0.38461538       0.38461538 </v>
   <v>       0.46153846       0.38461538       0.38461538 </v>
   <v>       0.46153846       0.46153846       0.38461538 </v>
   <v>       0.46153846       0.46153846       0.46153846 </v>
  </varray>
  <varray name="weights" >
   <v>       0.00045517 </v>
   <v>       0.00273100 </v>
   <v>       0.00273100 </v>
   <v>       0.00273100 </v>
   <v>       0.00273100 </v>
   <v>       0.00273100 </v>
   <v>       0.00273100 </v>
   <v>       0.00546199 </v>
   <v>       0.01092399 </v>
   <v>       0.01092399 </v>
   <v>       0.01092399 </v>
   <v>       0.01092399 </v>
   <v>       0.01092399 </v>
   <v>       0.00546199 </v>
   <v>       0.01092399 </v>
   <v>       0.01092399 </v>
   <v>       0.01092399 </v>
   <v>       0.01092399 </v>
   <v>       0.00546199 </v>
   <v>       0.01092399 </v>
   <v>       0.01092399 </v>
   <v>       0.01092399 </v>
   <v>       0.00546199 </v>
   <v>       0.01092399 </v>
   <v>       0.01092399 </v>
   <v>       0.00546199 </v>
   <v>       0.01092399 </v>
   <v>       0.00546199 </v>
   <v>       0.00364133 </v>
   <v>       0.01092399 </v>
   <v>       0.01092399 </v>
   <v>       0.01092399 </v>
   <v>       0.01092399 </v>
   <v>       0.01092399 </v>
   <v>       0.01092399 </v>
   <v>       0.02184797 </v>
   <v>       0.02184797 </v>
   <v>       0.02184797 </v>
   <v>       0.02184797 </v>
   <v>       0.01092399 </v>
   <v>       0.02184797 </v>
   <v>       0.02184797 </v>
   <v>       0.02184797 </v>
   <v>       0.01092399 </v>
   <v>       0.02184797 </v>
   <v>       0.02184797 </v>
   <v>       0.01092399 </v>
   <v>       0.02184797 </v>
   <v>       0.01092399 </v>
   <v>       0.00364133 </v>
   <v>       0.01092399 </v>
   <v>       0.01092399 </v>
   <v>       0.01092399 </v>
   <v>       0.01092399 </v>
   <v>       0.01092399 </v>
   <v>       0.02184797 </v>
   <v>       0.02184797 </v>
   <v>       0.02184797 </v>
   <v>       0.01092399 </v>
   <v>       0.02184797 </v>
   <v>       0.02184797 </v>
   <v>       0.01092399 </v>
   <v>       0.02184797 </v>
   <v>       0.01092399 </v>
   <v>       0.00364133 </v>
   <v>       0.01092399 </v>
   <v>       0.01092399 </v>
   <v>       0.01092399 </v>
   <v>       0.01092399 </v>
   <v>       0.02184797 </v>
   <v>       0.02184797 </v>
   <v>       0.01092399 </v>
   <v>       0.02184797 </v>
   <v>       0.01092399 </v>
   <v>       0.00364133 </v>
   <v>       0.01092399 </v>
   <v>       0.01092399 </v>
   <v>       0.01092399 </v>
   <v>       0.02184797 </v>
   <v>       0.01092399 </v>
   <v>       0.00364133 </v>
   <v>       0.01092399 </v>
   <v>       0.01092399 </v>
   <v>       0.00364133 </v>
  </varray>
 </kpoints>
 <parameters>
  <separator name="general" >
   <i type="string" name="SYSTEM">unknown system</i>
   <i type="logical" name="LCOMPAT"> F  </i>
  </separator>
  <separator name="electronic" >
   <i type="string" name="PREC">normal</i>
   <i name="ENMAX">    500.00000000</i>
   <i name="ENAUG">    170.75600000</i>
   <i name="EDIFF">      0.00010000</i>
   <i type="int" name="IALGO">    38</i>
   <i type="int" name="IWAVPR">    11</i>
   <i type="int" name="NBANDS">     5</i>
   <i type="int" name="NBANDSLOW">    -1</i>
   <i type="int" name="NBANDSHIGH">    -1</i>
   <i name="NELECT">      2.00000000</i>
   <i type="int" name="TURBO">     0</i>
   <i type="int" name="IRESTART">     0</i>
   <i type="int" name="NREBOOT">     0</i>
   <i type="int" name="NMIN">     0</i>
   <i name="EREF">      0.00000000</i>
   <separator name="electronic smearing" >
    <i type="int" name="ISMEAR">     1</i>
    <i name="SIGMA">      0.20000000</i>
    <i name="KSPACING">      0.50000000</i>
    <i type="logical" name="KGAMMA"> T  </i>
    <i type="logical" name="KBLOWUP"> T  </i>
   </separator>
   <separator name="electronic projectors" >
    <i type="logical" name="LREAL"> F  </i>
    <v name="ROPT">      0.00000000</v>
    <i type="int" name="LMAXPAW">  -100</i>
    <i type="int" name="LMAXMIX">     2</i>
    <i type="logical" name="NLSPLINE"> F  </i>
   </separator>
   <separator name="electronic startup" >
    <i type="int" name="ISTART">     1</i>
    <i type="int" name="ICHARG">     0</i>
    <i type="int" name="INIWAV">     1</i>
   </separator>
   <separator name="electronic spin" >
    <i type="int" name="ISPIN">     1</i>
    <i type="logical" name="LNONCOLLINEAR"> F  </i>
    <v name="MAGMOM">      1.00000000      1.00000000</v>
    <i name="NUPDOWN">     -1.00000000</i>
    <i type="logical" name="LSORBIT"> F  </i>
    <v name="SAXIS">      0.00000000      0.00000000      1.00000000</v>
    <i type="logical" name="LSPIRAL"> F  </i>
    <v name="QSPIRAL">      0.00000000      0.00000000      0.00000000</v>
    <i type="logical" name="LZEROZ"> F  </i>
   </separator>
   <separator name="electronic exchange-correlation" >
    <i type="logical" name="LASPH"> F  </i>
    <i type="logical" name="LMETAGGA"> F  </i>
   </separator>
   <separator name="electronic convergence" >
    <i type="int" name="NELM">    60</i>
    <i type="int" name="NELMDL">     0</i>
    <i type="int" name="NELMIN">     2</i>
    <i name="ENINI">    500.00000000</i>
    <separator name="electronic convergence detail" >
     <i type="logical" name="LDIAG"> T  </i>
     <i type="logical" name="LSUBROT"> F  </i>
     <i name="WEIMIN">      0.00100000</i>
     <i name="EBREAK">      0.00000500</i>
     <i name="DEPER">      0.30000000</i>
     <i type="int" name="NRMM">     4</i>
     <i name="TIME">      0.40000000</i>
    </separator>
   </separator>
   <separator name="electronic mixer" >
    <i name="AMIX">      0.40000000</i>
    <i name="BMIX">      1.00000000</i>
    <i name="AMIN">      0.10000000</i>
    <i name="AMIX_MAG">      1.60000000</i>
    <i name="BMIX_MAG">      1.00000000</i>
    <separator name="electronic mixer details" >
     <i type="int" name="IMIX">     4</i>
     <i type="logical" name="MIXFIRST"> F  </i>
     <i type="int" name="MAXMIX">   -45</i>
     <i name="WC">    100.00000000</i>
     <i type="int" name="INIMIX">     1</i>
     <i type="int" name="MIXPRE">     1</i>
     <i type="int" name="MREMOVE">     5</i>
    </separator>
   </separator>
   <separator name="electronic dipolcorrection" >
    <i type="logical" name="LDIPOL"> F  </i>
    <i type="logical" name="LMONO"> F  </i>
    <i type="int" name="IDIPOL">     0</i>
    <i name="EPSILON">      1.00000000</i>
    <v name="DIPOL">   -100.00000000   -100.00000000   -100.00000000</v>
    <i name="EFIELD">      0.00000000</i>
   </separator>
  </separator>
  <separator name="grids" >
   <i type="int" name="NGX">    24</i>
   <i type="int" name="NGY">    24</i>
   <i type="int" name="NGZ">    24</i>
   <i type="int" name="NGXF">    48</i>
   <i type="int" name="NGYF">    48</i>
   <i type="int" name="NGZF">    48</i>
   <i type="logical" name="ADDGRID"> F  </i>
  </separator>
  <separator name="ionic" >
   <i type="int" name="NSW">   100</i>
   <i type="int" name="IBRION">     2</i>
   <i type="int" name="MDALGO">     0</i>
   <i type="int" name="ISIF">     3</i>
   <i name="PSTRESS">      0.00000000</i>
   <i name="EDIFFG">      0.00100000</i>
   <i type="int" name="NFREE">     1</i>
   <i name="POTIM">      0.50000000</i>
   <i name="SMASS">     -3.00000000</i>
   <i name="SCALEE">      1.00000000</i>
  </separator>
  <separator name="ionic md" >
   <i name="TEBEG">      0.00010000</i>
   <i name="TEEND">      0.00010000</i>
   <i type="int" name="NBLOCK">     1</i>
   <i type="int" name="KBLOCK">   100</i>
   <i type="int" name="NPACO">   256</i>
   <i name="APACO">     16.00000000</i>
  </separator>
  <separator name="symmetry" >
   <i type="int" name="ISYM">     2</i>
   <i name="SYMPREC">      0.00001000</i>
  </separator>
  <separator name="dos" >
   <i type="int" name="LORBIT">     0</i>
   <v name="RWIGS">     -1.00000000</v>
   <i type="int" name="NEDOS">   301</i>
   <i name="EMIN">     10.00000000</i>
   <i name="EMAX">    -10.00000000</i>
   <i name="EFERMI">      0.00000000</i>
  </separator>
  <separator name="writing" >
   <i type="int" name="NWRITE">     2</i>
   <i type="logical" name="LWAVE"> T  </i>
   <i type="logical" name="LDOWNSAMPLE"> F  </i>
   <i type="logical" name="LCHARG"> T  </i>
   <i type="logical" name="LPARD"> F  </i>
   <i type="logical" name="LVTOT"> F  </i>
   <i type="logical" name="LVHAR"> T  </i>
   <i type="logical" name="LELF"> F  </i>
   <i type="logical" name="LOPTICS"> F  </i>
   <v name="STM">      0.00000000      0.00000000      0.00000000      0.00000000      0.00000000      0.00000000      0.00000000</v>
  </separator>
  <separator name="performance" >
   <i type="int" name="NPAR">     1</i>
   <i type="int" name="NSIM">     4</i>
   <i type="int" name="NBLK">    -1</i>
   <i type="logical" name="LPLANE"> T  </i>
   <i type="logical" name="LSCALAPACK"> T  </i>
   <i type="logical" name="LSCAAWARE"> F  </i>
   <i type="logical" name="LSCALU"> F  </i>
   <i type="logical" name="LASYNC"> F  </i>
   <i type="logical" name="LORBITALREAL"> F  </i>
  </separator>
  <separator name="miscellaneous" >
   <i type="int" name="IDIOT">     3</i>
   <i type="int" name="PHON_NSTRUCT">    -1</i>
   <i type="logical" name="LMUSIC"> F  </i>
   <v name="POMASS">     22.99000000</v>
   <v name="DARWINR">      0.00000000</v>
   <v name="DARWINV">      1.00000000</v>
   <i type="logical" name="LCORR"> T  </i>
  </separator>
  <i type="logical" name="GGA_COMPAT"> T  </i>
  <i type="logical" name="LBERRY"> F  </i>
  <i type="int" name="ICORELEVEL">     0</i>
  <i type="logical" name="LDAU"> F  </i>
  <i type="int" name="I_CONSTRAINED_M">     0</i>
  <separator name="electronic exchange-correlation" >
   <i type="string" name="GGA">--</i>
   <i type="int" name="VOSKOWN">     0</i>
   <i type="logical" name="LHFCALC"> F  </i>
   <i type="string" name="PRECFOCK"></i>
   <i type="logical" name="LSYMGRAD"> F  </i>
   <i type="logical" name="LHFONE"> F  </i>
   <i type="logical" name="LRHFCALC"> F  </i>
   <i type="logical" name="LTHOMAS"> F  </i>
   <i type="logical" name="LMODELHF"> F  </i>
   <i type="logical" name="LFOCKACE"> F  </i>
   <i name="ENCUT4O">     -1.00000000</i>
   <i type="int" name="EXXOEP">     0</i>
   <i type="int" name="FOURORBIT">     0</i>
   <i name="AEXX">      0.00000000</i>
   <i name="HFALPHA">      0.00000000</i>
   <i name="MCALPHA">      0.00000000</i>
   <i name="ALDAX">      1.00000000</i>
   <i name="AGGAX">      1.00000000</i>
   <i name="ALDAC">      1.00000000</i>
   <i name="AGGAC">      1.00000000</i>
   <i type="int" name="NKREDX">     1</i>
   <i type="int" name="NKREDY">     1</i>
   <i type="int" name="NKREDZ">     1</i>
   <i type="logical" name="SHIFTRED"> F  </i>
   <i type="logical" name="ODDONLY"> F  </i>
   <i type="logical" name="EVENONLY"> F  </i>
   <i type="int" name="LMAXFOCK">     0</i>
   <i type="int" name="NMAXFOCKAE">     0</i>
   <i type="logical" name="LFOCKAEDFT"> F  </i>
   <i name="HFSCREEN">      0.00000000</i>
   <i name="HFSCREENC">      0.00000000</i>
   <i type="int" name="NBANDSGWLOW">     0</i>
  </separator>
  <separator name="vdW DFT" >
   <i type="logical" name="LUSE_VDW"> F  </i>
   <i name="Zab_VDW">     -0.84910000</i>
   <i name="PARAM1">      0.12340000</i>
   <i name="PARAM2">      1.00000000</i>
   <i name="PARAM3">      0.00000000</i>
  </separator>
  <separator name="model GW" >
   <i type="int" name="MODEL_GW">     0</i>
   <i name="MODEL_EPS0">     23.55381520</i>
   <i name="MODEL_ALPHA">      1.00000000</i>
  </separator>
  <separator name="linear response parameters" >
   <i type="logical" name="LEPSILON"> F  </i>
   <i type="logical" name="LRPA"> F  </i>
   <i type="logical" name="LNABLA"> F  </i>
   <i type="logical" name="LVEL"> F  </i>
   <i type="int" name="KINTER">     0</i>
   <i name="CSHIFT">      0.10000000</i>
   <i name="OMEGAMAX">     -1.00000000</i>
   <i name="DEG_THRESHOLD">      0.00200000</i>
   <i name="RTIME">     -0.10000000</i>
   <i name="WPLASMAI">      0.00000000</i>
   <v name="DFIELD">      0.00000000      0.00000000      0.00000000</v>
   <v name="WPLASMA">      0.00000000      0.00000000      0.00000000      0.00000000      0.00000000      0.00000000      0.00000000      0.00000000      0.00000000</v>
  </separator>
  <separator name="orbital magnetization" >
   <i type="logical" name="NUCIND"> F  </i>
   <v name="MAGPOS">      0.00000000      0.00000000      0.00000000</v>
   <i type="logical" name="LNICSALL"> T  </i>
   <i type="logical" name="ORBITALMAG"> F  </i>
   <i type="logical" name="LMAGBLOCH"> F  </i>
   <i type="logical" name="LCHIMAG"> F  </i>
   <i type="logical" name="LGAUGE"> T  </i>
   <i type="int" name="MAGATOM">     0</i>
   <v name="MAGDIPOL">      0.00000000      0.00000000      0.00000000</v>
   <v name="AVECCONST">      0.00000000      0.00000000      0.00000000</v>
  </separator>
  <separator name="response functions" >
   <i type="logical" name="LFINITE_TEMPERATURE"> F  </i>
   <i type="logical" name="LADDER"> F  </i>
   <i type="logical" name="LRPAFORCE"> F  </i>
   <i type="logical" name="LFXC"> F  </i>
   <i type="logical" name="LHARTREE"> T  </i>
   <i type="int" name="IBSE">     0</i>
   <v type="int" name="KPOINT">    -1     0     0     0</v>
   <i type="logical" name="LTCTC"> F  </i>
   <i type="logical" name="LTCTE"> F  </i>
   <i type="logical" name="LTETE"> F  </i>
   <i type="logical" name="LTRIPLET"> F  </i>
   <i type="logical" name="LFXCEPS"> F  </i>
   <i type="logical" name="LFXHEG"> F  </i>
   <i type="int" name="NATURALO">     2</i>
   <i type="logical" name="LHOLEGF"> F  </i>
   <i type="logical" name="L2ORDER"> F  </i>
   <i type="logical" name="LDMP1"> F  </i>
   <i type="logical" name="LMP2LT"> F  </i>
   <i type="logical" name="LSMP2LT"> F  </i>
   <i type="logical" name="LGWLF"> F  </i>
   <i name="ENCUTGW">     -2.00000000</i>
   <i name="ENCUTGWSOFT">     -2.00000000</i>
   <i name="ENCUTLF">     -1.00000000</i>
   <i type="logical" name="LESF_SPLINES"> F  </i>
   <i type="int" name="LMAXMP2">    -1</i>
   <i name="SCISSOR">      0.00000000</i>
   <i type="int" name="NOMEGA">     0</i>
   <i type="int" name="NOMEGAR">     0</i>
   <i type="int" name="NBANDSGW">    -1</i>
   <i type="int" name="NBANDSO">    -1</i>
   <i type="int" name="NBANDSV">    -1</i>
   <i type="int" name="NELM">     1</i>
   <i type="int" name="NELMHF">     1</i>
   <i type="int" name="DIM">     3</i>
   <i type="int" name="IESPILON">     4</i>
   <i type="int" name="ANTIRES">     0</i>
   <i name="OMEGAMAX">    -30.00000000</i>
   <i name="OMEGAMIN">    -30.00000000</i>
   <i name="OMEGATL">   -200.00000000</i>
   <i type="int" name="OMEGAGRID">     0</i>
   <i name="CSHIFT">     -0.10000000</i>
   <i type="logical" name="LSELFENERGY"> F  </i>
   <i type="logical" name="LSPECTRAL"> F  </i>
   <i type="logical" name="LSPECTRALGW"> F  </i>
   <i type="logical" name="LSINGLES"> F  </i>
   <i type="logical" name="LFERMIGW"> F  </i>
   <i type="logical" name="ODDONLYGW"> F  </i>
   <i type="logical" name="EVENONLYGW"> F  </i>
   <i type="int" name="NKREDLFX">     1</i>
   <i type="int" name="NKREDLFY">     1</i>
   <i type="int" name="NKREDLFZ">     1</i>
   <i type="int" name="MAXMEM">  2800</i>
   <i type="int" name="TELESCOPE">     0</i>
   <i type="int" name="NTAUPAR">    -1</i>
   <i type="int" name="NOMEGAPAR">    -1</i>
   <i name="DAMP_NEWTON">      0.80000001</i>
   <i name="LAMBDA">      1.00000000</i>
  </separator>
  <separator name="External order field" >
   <i name="OFIELD_KAPPA">      0.00000000</i>
   <v name="OFIELD_K">      0.00000000      0.00000000      0.00000000</v>
   <i name="OFIELD_Q6_NEAR">      0.00000000</i>
   <i name="OFIELD_Q6_FAR">      0.00000000</i>
   <i name="OFIELD_A">      0.00000000</i>
  </separator>
 </parameters>
 <atominfo>
  <atoms>       2 </atoms>
  <types>       1 </types>
  <array name="atoms" >
   <dimension dim="1">ion</dimension>
   <field type="string">element</field>
   <field type="int">atomtype</field>
   <set>
    <rc><c>Na</c><c>   1</c></rc>
    <rc><c>Na</c><c>   1</c></rc>
   </set>
  </array>
  <array name="atomtypes" >
   <dimension dim="1">type</dimension>
   <field type="int">atomspertype</field>
   <field type="string">element</field>
   <field>mass</field>
   <field>valence</field>
   <field type="string">pseudopotential</field>
   <set>
    <rc><c>   2</c><c>Na</c><c>     22.99000000</c><c>      1.00000000</c><c> PAW_GGA Na 05Jan2001                   </c></rc>
   </set>
  </array>
 </atominfo>
 <structure name="initialpos" >
  <crystal>
   <varray name="basis" >
    <v>       4.28200006       0.00000000       0.00000000 </v>
    <v>       0.00000000       4.28200006       0.00000000 </v>
    <v>       0.00000000       0.00000000       4.28200006 </v>
   </varray>
   <i name="volume">     78.51271733 </i>
   <varray name="rec_basis" >
    <v>       0.23353573       0.00000000       0.00000000 </v>
    <v>       0.00000000       0.23353573       0.00000000 </v>
    <v>       0.00000000       0.00000000       0.23353573 </v>
   </varray>
  </crystal>
  <varray name="positions" >
   <v>       0.00000000       0.00000000       0.00000000 </v>
   <v>       0.50000000       0.50000000       0.50000000 </v>
  </varray>
 </structure>
 <calculation>
  <scstep>
   <time name="dav">    1.04    1.04</time>
   <time name="total">    1.23    1.67</time>
   <energy>
    <i name="alphaZ">     -1.05627525 </i>
    <i name="ewald">    -12.23825003 </i>
    <i name="hartreedc">     -0.00948209 </i>
    <i name="XCdc">    -20.85118712 </i>
    <i name="pawpsdc">     21.56956172 </i>
    <i name="pawaedc">      0.01446951 </i>
    <i name="eentropy">     -0.00094561 </i>
    <i name="bandstr">     -0.08818152 </i>
    <i name="atom">     10.39039485 </i>
    <i name="e_fr_energy">     -2.26989553 </i>
    <i name="e_wo_entrp">     -2.26894992 </i>
    <i name="e_0_energy">     -2.26958033 </i>
   </energy>
  </scstep>
  <scstep>
   <time name="dav">    1.03    1.03</time>
   <time name="total">    1.21    1.22</time>
   <energy>
    <i name="e_fr_energy">     -2.60859884 </i>
    <i name="e_wo_entrp">     -2.60768871 </i>
    <i name="e_0_energy">     -2.60829546 </i>
   </energy>
  </scstep>
  <scstep>
   <time name="dav">    1.19    1.19</time>
   <time name="total">    1.38    1.38</time>
   <energy>
    <i name="e_fr_energy">     -2.60392670 </i>
    <i name="e_wo_entrp">     -2.60301568 </i>
    <i name="e_0_energy">     -2.60362302 </i>
   </energy>
  </scstep>
  <scstep>
   <time name="dav">    0.82    0.82</time>
   <time name="total">    0.90    0.90</time>
   <energy>
    <i name="alphaZ">     -1.05627525 </i>
    <i name="ewald">    -12.23825003 </i>
    <i name="hartreedc">     -0.02656489 </i>
    <i name="XCdc">    -19.67155416 </i>
    <i name="pawpsdc">     21.79793255 </i>
    <i name="pawaedc">     -0.25730790 </i>
    <i name="eentropy">     -0.00091091 </i>
    <i name="bandstr">     -1.54137911 </i>
    <i name="atom">     10.39039485 </i>
    <i name="e_fr_energy">     -2.60391485 </i>
    <i name="e_wo_entrp">     -2.60300394 </i>
    <i name="e_0_energy">     -2.60361121 </i>
   </energy>
  </scstep>
  <structure>
   <crystal>
    <varray name="basis" >
     <v>       4.28200006       0.00000000       0.00000000 </v>
     <v>       0.00000000       4.28200006       0.00000000 </v>
     <v>       0.00000000       0.00000000       4.28200006 </v>
    </varray>
    <i name="volume">     78.51271733 </i>
    <varray name="rec_basis" >
     <v>       0.23353573       0.00000000       0.00000000 </v>
     <v>       0.00000000       0.23353573       0.00000000 </v>
     <v>       0.00000000       0.00000000       0.23353573 </v>
    </varray>
   </crystal>
   <varray name="positions" >
    <v>       0.00000000       0.00000000       0.00000000 </v>
    <v>       0.50000000       0.50000000       0.50000000 </v>
   </varray>
  </structure>
  <varray name="forces" >
   <v>      -0.00000000      -0.00000000       0.00000000 </v>
   <v>       0.00000000       0.00000000      -0.00000000 </v>
  </varray>
  <varray name="stress" >
   <v>      -3.90157121       0.00000000      -0.00000000 </v>
   <v>       0.00000000      -3.90157121       0.00000000 </v>
   <v>      -0.00000000      -0.00000000      -3.90157121 </v>
  </varray>
  <energy>
   <i name="e_fr_energy">     -2.60391485 </i>
   <i name="e_wo_entrp">     -2.60300394 </i>
   <i name="e_0_energy">     -2.60361121 </i>
  </energy>
  <time name="totalsc">    5.95   10.19</time>
 </calculation>
 <calculation>
  <scstep>
   <time name="dav">    0.97    0.98</time>
   <time name="total">    1.16    1.16</time>
   <energy>
    <i name="alphaZ">     -1.07102507 </i>
    <i name="ewald">    -12.29495185 </i>
    <i name="hartreedc">     -0.02748834 </i>
    <i name="XCdc">    -19.66260615 </i>
    <i name="pawpsdc">     21.78135279 </i>
    <i name="pawaedc">     -0.23848912 </i>
    <i name="eentropy">     -0.00090133 </i>
    <i name="bandstr">     -1.48246578 </i>
    <i name="atom">     10.39039485 </i>
    <i name="e_fr_energy">     -2.60618000 </i>
    <i name="e_wo_entrp">     -2.60527867 </i>
    <i name="e_0_energy">     -2.60587956 </i>
   </energy>
  </scstep>
  <scstep>
   <time name="dav">    0.57    0.58</time>
   <time name="total">    0.65    0.65</time>
   <energy>
    <i name="alphaZ">     -1.07102507 </i>
    <i name="ewald">    -12.29495185 </i>
    <i name="hartreedc">     -0.02778402 </i>
    <i name="XCdc">    -19.66178685 </i>
    <i name="pawpsdc">     21.78416629 </i>
    <i name="pawaedc">     -0.24174129 </i>
    <i name="eentropy">     -0.00090123 </i>
    <i name="bandstr">     -1.48255056 </i>
    <i name="atom">     10.39039485 </i>
    <i name="e_fr_energy">     -2.60617971 </i>
    <i name="e_wo_entrp">     -2.60527848 </i>
    <i name="e_0_energy">     -2.60587930 </i>
   </energy>
  </scstep>
  <structure>
   <crystal>
    <varray name="basis" >
     <v>       4.26225235       0.00000000      -0.00000000 </v>
     <v>       0.00000000       4.26225235       0.00000000 </v>
     <v>      -0.00000000      -0.00000000       4.26225235 </v>
    </varray>
    <i name="volume">     77.43146513 </i>
    <varray name="rec_basis" >
     <v>       0.23461774      -0.00000000       0.00000000 </v>
     <v>      -0.00000000       0.23461774       0.00000000 </v>
     <v>       0.00000000      -0.00000000       0.23461774 </v>
    </varray>
   </crystal>
   <varray name="positions" >
    <v>      -0.00000000      -0.00000000       0.00000000 </v>
    <v>       0.50000000       0.50000000       0.50000000 </v>
   </varray>
  </structure>
  <varray name="forces" >
   <v>      -0.00000000      -0.00000000      -0.00000000 </v>
   <v>       0.00000000       0.00000000       0.00000000 </v>
  </varray>
  <varray name="stress" >
   <v>      -2.96236426      -0.00000000      -0.00000000 </v>
   <v>      -0.00000000      -2.96236426      -0.00000000 </v>
   <v>       0.00000000      -0.00000000      -2.96236426 </v>
  </varray>
  <energy>
   <i name="e_fr_energy">     -2.60617971 </i>
   <i name="e_wo_entrp">     -2.60527848 </i>
   <i name="e_0_energy">     -2.60587930 </i>
  </energy>
  <time name="totalsc">    3.00    4.86</time>
 </calculation>
 <calculation>
  <scstep>
   <time name="dav">    0.92    0.92</time>
   <time name="total">    1.10    1.10</time>
   <energy>
    <i name="alphaZ">     -1.11665981 </i>
    <i name="ewald">    -12.46715184 </i>
    <i name="hartreedc">     -0.02888700 </i>
    <i name="XCdc">    -19.63978844 </i>
    <i name="pawpsdc">     21.78950939 </i>
    <i name="pawaedc">     -0.24792371 </i>
    <i name="eentropy">     -0.00087206 </i>
    <i name="bandstr">     -1.28779843 </i>
    <i name="atom">     10.39039485 </i>
    <i name="e_fr_energy">     -2.60917704 </i>
    <i name="e_wo_entrp">     -2.60830498 </i>
    <i name="e_0_energy">     -2.60888635 </i>
   </energy>
  </scstep>
  <scstep>
   <time name="dav">    0.78    0.78</time>
   <time name="total">    0.85    0.86</time>
   <energy>
    <i name="alphaZ">     -1.11665981 </i>
    <i name="ewald">    -12.46715184 </i>
    <i name="hartreedc">     -0.02966185 </i>
    <i name="XCdc">    -19.63764334 </i>
    <i name="pawpsdc">     21.79897924 </i>
    <i name="pawaedc">     -0.25888184 </i>
    <i name="eentropy">     -0.00087184 </i>
    <i name="bandstr">     -1.28765864 </i>
    <i name="atom">     10.39039485 </i>
    <i name="e_fr_energy">     -2.60915507 </i>
    <i name="e_wo_entrp">     -2.60828323 </i>
    <i name="e_0_energy">     -2.60886446 </i>
   </energy>
  </scstep>
  <structure>
   <crystal>
    <varray name="basis" >
     <v>       4.20338086       0.00000000      -0.00000000 </v>
     <v>       0.00000000       4.20338086       0.00000000 </v>
     <v>      -0.00000000      -0.00000000       4.20338086 </v>
    </varray>
    <i name="volume">     74.26705907 </i>
    <varray name="rec_basis" >
     <v>       0.23790373      -0.00000000       0.00000000 </v>
     <v>      -0.00000000       0.23790373       0.00000000 </v>
     <v>       0.00000000      -0.00000000       0.23790373 </v>
    </varray>
   </crystal>
   <varray name="positions" >
    <v>      -0.00000000      -0.00000000       0.00000000 </v>
    <v>       0.50000000       0.50000000       0.50000000 </v>
   </varray>
  </structure>
  <varray name="forces" >
   <v>      -0.00000000      -0.00000000      -0.00000000 </v>
   <v>       0.00000000       0.00000000       0.00000000 </v>
  </varray>
  <varray name="stress" >
   <v>       0.01581044       0.00000000       0.00000000 </v>
   <v>      -0.00000000       0.01581044       0.00000000 </v>
   <v>       0.00000000       0.00000000       0.01581044 </v>
  </varray>
  <energy>
   <i name="e_fr_energy">     -2.60915507 </i>
   <i name="e_wo_entrp">     -2.60828323 </i>
   <i name="e_0_energy">     -2.60886446 </i>
  </energy>
  <time name="totalsc">    3.06    5.84</time>
  <eigenvalues>
   <array>
    <dimension dim="1">band</dimension>
    <dimension dim="2">kpoint</dimension>
    <dimension dim="3">spin</dimension>
    <field>eigene</field>
    <field>occ</field>
    <set>
     <set comment="spin 1">
      <set comment="kpoint 1">
       <r>   -2.6281    1.0000 </r>
       <r>    5.1506   -0.0000 </r>
       <r>    5.1506   -0.0000 </r>
       <r>    5.5313   -0.0000 </r>
       <r>    5.5313   -0.0000 </r>
      </set>
      <set comment="kpoint 2">
       <r>   -2.5762    1.0000 </r>
       <r>    4.3098   -0.0000 </r>
       <r>    5.2008   -0.0000 </r>
       <r>    5.5747   -0.0000 </r>
       <r>    5.5747   -0.0000 </r>
      </set>
      <set comment="kpoint 3">
       <r>   -2.4209    1.0000 </r>
       <r>    3.3006   -0.0000 </r>
       <r>    5.3514   -0.0000 </r>
       <r>    5.7049   -0.0000 </r>
       <r>    5.7049   -0.0000 </r>
      </set>
      <set comment="kpoint 4">
       <r>   -2.1630    1.0000 </r>
       <r>    2.3305   -0.0000 </r>
       <r>    5.6023   -0.0000 </r>
       <r>    5.9222   -0.0000 </r>
       <r>    5.9222   -0.0000 </r>
      </set>
      <set comment="kpoint 5">
       <r>   -1.8038    1.0000 </r>
       <r>    1.4264   -0.0000 </r>
       <r>    5.9537   -0.0000 </r>
       <r>    6.2272    0.0000 </r>
       <r>    6.2272    0.0000 </r>
      </set>
      <set comment="kpoint 6">
       <r>   -1.3451    1.0000 </r>
       <r>    0.6007    0.7274 </r>
       <r>    6.4053    0.0000 </r>
       <r>    6.6205    0.0000 </r>
       <r>    6.6205    0.0000 </r>
      </set>
      <set comment="kpoint 7">
       <r>   -0.7894    1.0000 </r>
       <r>   -0.1396    1.0000 </r>
       <r>    6.9572    0.0000 </r>
       <r>    7.1028    0.0000 </r>
       <r>    7.1028    0.0000 </r>
      </set>
      <set comment="kpoint 8">
       <r>   -2.5244    1.0000 </r>
       <r>    4.1994   -0.0000 </r>
       <r>    4.5733   -0.0000 </r>
       <r>    5.6180   -0.0000 </r>
       <r>    5.9148   -0.0000 </r>
      </set>
      <set comment="kpoint 9">
       <r>   -2.3692    1.0000 </r>
       <r>    3.3317   -0.0000 </r>
       <r>    4.5816   -0.0000 </r>
       <r>    5.7482   -0.0000 </r>
       <r>    6.1165    0.0000 </r>
      </set>
      <set comment="kpoint 10">
       <r>   -2.1116    1.0000 </r>
       <r>    2.3743   -0.0000 </r>
       <r>    4.8066   -0.0000 </r>
       <r>    5.9655   -0.0000 </r>
       <r>    6.3725    0.0000 </r>
      </set>
      <set comment="kpoint 11">
       <r>   -1.7526    1.0000 </r>
       <r>    1.4737   -0.0000 </r>
       <r>    5.1342   -0.0000 </r>
       <r>    6.2705    0.0000 </r>
       <r>    6.7177    0.0000 </r>
      </set>
      <set comment="kpoint 12">
       <r>   -1.2944    1.0000 </r>
       <r>    0.6494    0.5313 </r>
       <r>    5.5575   -0.0000 </r>
       <r>    6.6636    0.0000 </r>
       <r>    7.1565    0.0000 </r>
      </set>
      <set comment="kpoint 13">
       <r>   -0.7392    1.0000 </r>
       <r>   -0.0900    1.0000 </r>
       <r>    6.0749   -0.0000 </r>
       <r>    6.6851    0.0000 </r>
       <r>    7.1457    0.0000 </r>
      </set>
      <set comment="kpoint 14">
       <r>   -2.2145    1.0000 </r>
       <r>    3.2715   -0.0000 </r>
       <r>    3.7817   -0.0000 </r>
       <r>    5.8783   -0.0000 </r>
       <r>    6.3841    0.0000 </r>
      </set>
      <set comment="kpoint 15">
       <r>   -1.9575    1.0000 </r>
       <r>    2.4955   -0.0000 </r>
       <r>    3.8247   -0.0000 </r>
       <r>    6.0955   -0.0000 </r>
       <r>    6.6693    0.0000 </r>
      </set>
      <set comment="kpoint 16">
       <r>   -1.5995    1.0000 </r>
       <r>    1.6135   -0.0000 </r>
       <r>    4.1345   -0.0000 </r>
       <r>    6.4003    0.0000 </r>
       <r>    7.0354    0.0000 </r>
      </set>
      <set comment="kpoint 17">
       <r>   -1.1425    1.0000 </r>
       <r>    0.7950    0.0434 </r>
       <r>    4.5539   -0.0000 </r>
       <r>    6.7930    0.0000 </r>
       <r>    7.4925    0.0000 </r>
      </set>
      <set comment="kpoint 18">
       <r>   -0.5887    1.0000 </r>
       <r>    0.0585    1.0001 </r>
       <r>    5.0708   -0.0000 </r>
       <r>    5.6815   -0.0000 </r>
       <r>    7.2743    0.0000 </r>
      </set>
      <set comment="kpoint 19">
       <r>   -1.7016    1.0000 </r>
       <r>    2.5285   -0.0000 </r>
       <r>    3.0606   -0.0000 </r>
       <r>    6.3125    0.0000 </r>
       <r>    7.0999    0.0000 </r>
      </set>
      <set comment="kpoint 20">
       <r>   -1.3452    1.0000 </r>
       <r>    1.8343   -0.0000 </r>
       <r>    3.1861   -0.0000 </r>
       <r>    6.2212    0.0000 </r>
       <r>    6.6168    0.0000 </r>
      </set>
      <set comment="kpoint 21">
       <r>   -0.8901    1.0000 </r>
       <r>    1.0347   -0.0112 </r>
       <r>    3.5917   -0.0000 </r>
       <r>    5.4266   -0.0000 </r>
       <r>    7.0085    0.0000 </r>
      </set>
      <set comment="kpoint 22">
       <r>   -0.3390    1.0000 </r>
       <r>    0.3046    1.0160 </r>
       <r>    4.1080   -0.0000 </r>
       <r>    7.4879    0.0000 </r>
       <r>    8.3509    0.0000 </r>
      </set>
      <set comment="kpoint 23">
       <r>   -0.9909    1.0000 </r>
       <r>    1.9723   -0.0000 </r>
       <r>    2.4850   -0.0000 </r>
       <r>    6.9199    0.0000 </r>
       <r>    7.7144    0.0000 </r>
      </set>
      <set comment="kpoint 24">
       <r>   -0.5389    1.0000 </r>
       <r>    1.3574   -0.0000 </r>
       <r>    2.7126   -0.0000 </r>
       <r>    7.3095    0.0000 </r>
       <r>    8.1730    0.0000 </r>
      </set>
      <set comment="kpoint 25">
       <r>    0.0082    1.0000 </r>
       <r>    0.6453    0.5487 </r>
       <r>    3.2183   -0.0000 </r>
       <r>    3.8325   -0.0000 </r>
       <r>    7.7841    0.0000 </r>
      </set>
      <set comment="kpoint 26">
       <r>   -0.0909    1.0000 </r>
       <r>    1.6023   -0.0000 </r>
       <r>    2.0882   -0.0000 </r>
       <r>    3.7396   -0.0000 </r>
       <r>    7.6941    0.0000 </r>
      </set>
      <set comment="kpoint 27">
       <r>    0.4495    1.0285 </r>
       <r>    1.0695   -0.0065 </r>
       <r>    2.4231   -0.0000 </r>
       <r>    3.0289   -0.0000 </r>
       <r>    8.1561    0.0000 </r>
      </set>
      <set comment="kpoint 28">
       <r>    0.9732   -0.0239 </r>
       <r>    1.4175   -0.0000 </r>
       <r>    1.8863   -0.0000 </r>
       <r>    2.3258   -0.0000 </r>
       <r>    8.5745    0.0000 </r>
      </set>
      <set comment="kpoint 29">
       <r>   -2.4726    1.0000 </r>
       <r>    4.2465   -0.0000 </r>
       <r>    4.2465   -0.0000 </r>
       <r>    5.1354   -0.0000 </r>
       <r>    6.7219    0.0000 </r>
      </set>
      <set comment="kpoint 30">
       <r>   -2.3176    1.0000 </r>
       <r>    3.3655   -0.0000 </r>
       <r>    4.3878   -0.0000 </r>
       <r>    5.1400   -0.0000 </r>
       <r>    6.8613    0.0000 </r>
      </set>
      <set comment="kpoint 31">
       <r>   -2.0601    1.0000 </r>
       <r>    2.4181   -0.0000 </r>
       <r>    4.6233   -0.0000 </r>
       <r>    5.3456   -0.0000 </r>
       <r>    7.0942    0.0000 </r>
      </set>
      <set comment="kpoint 32">
       <r>   -1.7016    1.0000 </r>
       <r>    1.5208   -0.0000 </r>
       <r>    4.9530   -0.0000 </r>
       <r>    5.6607   -0.0000 </r>
       <r>    7.4208    0.0000 </r>
      </set>
      <set comment="kpoint 33">
       <r>   -1.2437    1.0000 </r>
       <r>    0.6981    0.3294 </r>
       <r>    5.3768   -0.0000 </r>
       <r>    6.0713   -0.0000 </r>
       <r>    7.2122    0.0000 </r>
      </set>
      <set comment="kpoint 34">
       <r>   -0.6890    1.0000 </r>
       <r>   -0.0404    1.0000 </r>
       <r>    5.8947   -0.0000 </r>
       <r>    6.5066    0.0000 </r>
       <r>    6.5724    0.0000 </r>
      </set>
      <set comment="kpoint 35">
       <r>   -2.1630    1.0000 </r>
       <r>    3.3181   -0.0000 </r>
       <r>    3.7625   -0.0000 </r>
       <r>    5.0685   -0.0000 </r>
       <r>    7.2905    0.0000 </r>
      </set>
      <set comment="kpoint 36">
       <r>   -1.9062    1.0000 </r>
       <r>    2.5398   -0.0000 </r>
       <r>    3.8344   -0.0000 </r>
       <r>    5.2668   -0.0000 </r>
       <r>    7.5745    0.0000 </r>
      </set>
      <set comment="kpoint 37">
       <r>   -1.5486    1.0000 </r>
       <r>    1.6605   -0.0000 </r>
       <r>    4.1478   -0.0000 </r>
       <r>    5.5829   -0.0000 </r>
       <r>    7.1889    0.0000 </r>
      </set>
      <set comment="kpoint 38">
       <r>   -1.0919    1.0000 </r>
       <r>    0.8434   -0.0167 </r>
       <r>    4.5674   -0.0000 </r>
       <r>    5.9967   -0.0000 </r>
       <r>    6.3965    0.0000 </r>
      </set>
      <set comment="kpoint 39">
       <r>   -0.5387    1.0000 </r>
       <r>    0.1079    1.0004 </r>
       <r>    5.0837   -0.0000 </r>
       <r>    5.6940   -0.0000 </r>
       <r>    6.5021    0.0000 </r>
      </set>
      <set comment="kpoint 40">
       <r>   -1.6505    1.0000 </r>
       <r>    2.5749   -0.0000 </r>
       <r>    3.0933   -0.0000 </r>
       <r>    5.4653   -0.0000 </r>
       <r>    7.1300    0.0000 </r>
      </set>
      <set comment="kpoint 41">
       <r>   -1.2944    1.0000 </r>
       <r>    1.8809   -0.0000 </r>
       <r>    3.2245   -0.0000 </r>
       <r>    5.7807   -0.0000 </r>
       <r>    6.2553    0.0000 </r>
      </set>
      <set comment="kpoint 42">
       <r>   -0.8398    1.0000 </r>
       <r>    1.0828   -0.0051 </r>
       <r>    3.6302   -0.0000 </r>
       <r>    5.4625   -0.0000 </r>
       <r>    6.1930    0.0000 </r>
      </set>
      <set comment="kpoint 43">
       <r>   -0.2892    1.0000 </r>
       <r>    0.3537    1.0269 </r>
       <r>    4.1459   -0.0000 </r>
       <r>    4.7581   -0.0000 </r>
       <r>    6.6958    0.0000 </r>
      </set>
      <set comment="kpoint 44">
       <r>   -0.9405    1.0000 </r>
       <r>    2.0186   -0.0000 </r>
       <r>    2.5295   -0.0000 </r>
       <r>    5.3792   -0.0000 </r>
       <r>    6.0938   -0.0000 </r>
      </set>
      <set comment="kpoint 45">
       <r>   -0.4889    1.0000 </r>
       <r>    1.4049   -0.0000 </r>
       <r>    2.7577   -0.0000 </r>
       <r>    4.5834   -0.0000 </r>
       <r>    6.5020    0.0000 </r>
      </set>
      <set comment="kpoint 46">
       <r>    0.0576    1.0001 </r>
       <r>    0.6939    0.3459 </r>
       <r>    3.2627   -0.0000 </r>
       <r>    3.8759   -0.0000 </r>
       <r>    6.9973    0.0000 </r>
      </set>
      <set comment="kpoint 47">
       <r>   -0.0414    1.0000 </r>
       <r>    1.6485   -0.0000 </r>
       <r>    2.1365   -0.0000 </r>
       <r>    3.7842   -0.0000 </r>
       <r>    6.9023    0.0000 </r>
      </set>
      <set comment="kpoint 48">
       <r>    0.4984    0.9880 </r>
       <r>    1.1173   -0.0027 </r>
       <r>    2.4703   -0.0000 </r>
       <r>    3.0750   -0.0000 </r>
       <r>    7.3803    0.0000 </r>
      </set>
      <set comment="kpoint 49">
       <r>    1.0211   -0.0136 </r>
       <r>    1.4636   -0.0000 </r>
       <r>    1.9359   -0.0000 </r>
       <r>    2.3736   -0.0000 </r>
       <r>    7.8055    0.0000 </r>
      </set>
      <set comment="kpoint 50">
       <r>   -2.0088    1.0000 </r>
       <r>    3.4581   -0.0000 </r>
       <r>    3.4581   -0.0000 </r>
       <r>    4.4732   -0.0000 </r>
       <r>    8.3688    0.0000 </r>
      </set>
      <set comment="kpoint 51">
       <r>   -1.7527    1.0000 </r>
       <r>    2.6647   -0.0000 </r>
       <r>    3.6916   -0.0000 </r>
       <r>    4.5213   -0.0000 </r>
       <r>    7.9561    0.0000 </r>
      </set>
      <set comment="kpoint 52">
       <r>   -1.3959    1.0000 </r>
       <r>    1.7995   -0.0000 </r>
       <r>    4.0187   -0.0000 </r>
       <r>    4.8116   -0.0000 </r>
       <r>    7.0654    0.0000 </r>
      </set>
      <set comment="kpoint 53">
       <r>   -0.9405    1.0000 </r>
       <r>    0.9882   -0.0205 </r>
       <r>    4.4396   -0.0000 </r>
       <r>    5.2237   -0.0000 </r>
       <r>    7.0067    0.0000 </r>
      </set>
      <set comment="kpoint 54">
       <r>   -0.3889    1.0000 </r>
       <r>    0.2557    1.0078 </r>
       <r>    4.9546   -0.0000 </r>
       <r>    5.7339   -0.0000 </r>
       <r>    6.3317    0.0000 </r>
      </set>
      <set comment="kpoint 55">
       <r>   -1.4977    1.0000 </r>
       <r>    2.7142   -0.0000 </r>
       <r>    3.1530   -0.0000 </r>
       <r>    4.4982   -0.0000 </r>
       <r>    7.2004    0.0000 </r>
      </set>
      <set comment="kpoint 56">
       <r>   -1.1425    1.0000 </r>
       <r>    2.0194   -0.0000 </r>
       <r>    3.3187   -0.0000 </r>
       <r>    4.7816   -0.0000 </r>
       <r>    6.3409    0.0000 </r>
      </set>
      <set comment="kpoint 57">
       <r>   -0.6891    1.0000 </r>
       <r>    1.2265   -0.0002 </r>
       <r>    3.7270   -0.0000 </r>
       <r>    5.1912   -0.0000 </r>
       <r>    5.5521   -0.0000 </r>
      </set>
      <set comment="kpoint 58">
       <r>   -0.1402    1.0000 </r>
       <r>    0.5006    0.9851 </r>
       <r>    4.2410   -0.0000 </r>
       <r>    4.8505   -0.0000 </r>
       <r>    5.6989   -0.0000 </r>
      </set>
      <set comment="kpoint 59">
       <r>   -0.7896    1.0000 </r>
       <r>    2.1574   -0.0000 </r>
       <r>    2.6558   -0.0000 </r>
       <r>    5.0637   -0.0000 </r>
       <r>    5.4928   -0.0000 </r>
      </set>
      <set comment="kpoint 60">
       <r>   -0.3392    1.0000 </r>
       <r>    1.5468   -0.0000 </r>
       <r>    2.8886   -0.0000 </r>
       <r>    4.7053   -0.0000 </r>
       <r>    5.4689   -0.0000 </r>
      </set>
      <set comment="kpoint 61">
       <r>    0.2055    1.0032 </r>
       <r>    0.8394   -0.0136 </r>
       <r>    3.3919   -0.0000 </r>
       <r>    4.0022   -0.0000 </r>
       <r>    5.9682   -0.0000 </r>
      </set>
      <set comment="kpoint 62">
       <r>    0.1068    1.0004 </r>
       <r>    1.7870   -0.0000 </r>
       <r>    2.2789   -0.0000 </r>
       <r>    3.9159   -0.0000 </r>
       <r>    5.8653   -0.0000 </r>
      </set>
      <set comment="kpoint 63">
       <r>    0.6446    0.5514 </r>
       <r>    1.2605   -0.0001 </r>
       <r>    2.6102   -0.0000 </r>
       <r>    3.2115   -0.0000 </r>
       <r>    6.3458    0.0000 </r>
      </set>
      <set comment="kpoint 64">
       <r>    1.1647   -0.0010 </r>
       <r>    1.6020   -0.0000 </r>
       <r>    2.0832   -0.0000 </r>
       <r>    2.5155   -0.0000 </r>
       <r>    6.7695    0.0000 </r>
      </set>
      <set comment="kpoint 65">
       <r>   -1.2438    1.0000 </r>
       <r>    2.9465   -0.0000 </r>
       <r>    2.9465   -0.0000 </r>
       <r>    3.9592   -0.0000 </r>
       <r>    7.2000    0.0000 </r>
      </set>
      <set comment="kpoint 66">
       <r>   -0.8902    1.0000 </r>
       <r>    2.2402   -0.0000 </r>
       <r>    3.2721   -0.0000 </r>
       <r>    4.0961   -0.0000 </r>
       <r>    6.8501    0.0000 </r>
      </set>
      <set comment="kpoint 67">
       <r>   -0.4390    1.0000 </r>
       <r>    1.4630   -0.0000 </r>
       <r>    3.6913   -0.0000 </r>
       <r>    4.4822   -0.0000 </r>
       <r>    6.2259    0.0000 </r>
      </set>
      <set comment="kpoint 68">
       <r>    0.1072    1.0004 </r>
       <r>    0.7439    0.1673 </r>
       <r>    4.2045   -0.0000 </r>
       <r>    4.9866   -0.0000 </r>
       <r>    5.5776   -0.0000 </r>
      </set>
      <set comment="kpoint 69">
       <r>   -0.5390    1.0000 </r>
       <r>    2.3890   -0.0000 </r>
       <r>    2.8168   -0.0000 </r>
       <r>    4.1614   -0.0000 </r>
       <r>    5.6524   -0.0000 </r>
      </set>
      <set comment="kpoint 70">
       <r>   -0.0908    1.0000 </r>
       <r>    1.7808   -0.0000 </r>
       <r>    3.0794   -0.0000 </r>
       <r>    4.5372   -0.0000 </r>
       <r>    4.8843   -0.0000 </r>
      </set>
      <set comment="kpoint 71">
       <r>    0.4509    1.0279 </r>
       <r>    1.0804   -0.0054 </r>
       <r>    3.5822   -0.0000 </r>
       <r>    4.1881   -0.0000 </r>
       <r>    5.0325   -0.0000 </r>
      </set>
      <set comment="kpoint 72">
       <r>    0.3528    1.0267 </r>
       <r>    2.0180   -0.0000 </r>
       <r>    2.5042   -0.0000 </r>
       <r>    4.1258   -0.0000 </r>
       <r>    4.9047   -0.0000 </r>
      </set>
      <set comment="kpoint 73">
       <r>    0.8872   -0.0346 </r>
       <r>    1.4979   -0.0000 </r>
       <r>    2.8360   -0.0000 </r>
       <r>    3.4316   -0.0000 </r>
       <r>    5.3804   -0.0000 </r>
      </set>
      <set comment="kpoint 74">
       <r>    1.4029   -0.0000 </r>
       <r>    1.8328   -0.0000 </r>
       <r>    2.3227   -0.0000 </r>
       <r>    2.7474   -0.0000 </r>
       <r>    5.7978   -0.0000 </r>
      </set>
      <set comment="kpoint 75">
       <r>   -0.1901    1.0000 </r>
       <r>    2.7136   -0.0000 </r>
       <r>    2.7136   -0.0000 </r>
       <r>    3.7011   -0.0000 </r>
       <r>    5.7450   -0.0000 </r>
      </set>
      <set comment="kpoint 76">
       <r>    0.2547    1.0077 </r>
       <r>    2.0972   -0.0000 </r>
       <r>    3.1316   -0.0000 </r>
       <r>    3.9318   -0.0000 </r>
       <r>    5.4910   -0.0000 </r>
      </set>
      <set comment="kpoint 77">
       <r>    0.7918    0.0492 </r>
       <r>    1.4136   -0.0000 </r>
       <r>    3.6434   -0.0000 </r>
       <r>    4.4004   -0.0000 </r>
       <r>    4.9553   -0.0000 </r>
      </set>
      <set comment="kpoint 78">
       <r>    0.6948    0.3425 </r>
       <r>    2.3420   -0.0000 </r>
       <r>    2.7641   -0.0000 </r>
       <r>    4.0862   -0.0000 </r>
       <r>    4.3843   -0.0000 </r>
      </set>
      <set comment="kpoint 79">
       <r>    1.2240   -0.0002 </r>
       <r>    1.8266   -0.0000 </r>
       <r>    3.1204   -0.0000 </r>
       <r>    3.7108   -0.0000 </r>
       <r>    4.5316   -0.0000 </r>
      </set>
      <set comment="kpoint 80">
       <r>    1.7337   -0.0000 </r>
       <r>    2.1564   -0.0000 </r>
       <r>    2.6397   -0.0000 </r>
       <r>    3.0577   -0.0000 </r>
       <r>    4.9202   -0.0000 </r>
      </set>
      <set comment="kpoint 81">
       <r>    1.1296   -0.0021 </r>
       <r>    2.7592   -0.0000 </r>
       <r>    2.7592   -0.0000 </r>
       <r>    3.7050   -0.0000 </r>
       <r>    4.5747   -0.0000 </r>
      </set>
      <set comment="kpoint 82">
       <r>    1.6505   -0.0000 </r>
       <r>    2.2360   -0.0000 </r>
       <r>    3.2701   -0.0000 </r>
       <r>    3.9930   -0.0000 </r>
       <r>    4.4129   -0.0000 </r>
      </set>
      <set comment="kpoint 83">
       <r>    2.1524   -0.0000 </r>
       <r>    2.5732   -0.0000 </r>
       <r>    2.9854   -0.0000 </r>
       <r>    3.4118   -0.0000 </r>
       <r>    4.1674   -0.0000 </r>
      </set>
      <set comment="kpoint 84">
       <r>    2.6428   -0.0000 </r>
       <r>    3.0837   -0.0000 </r>
       <r>    3.0837   -0.0000 </r>
       <r>    3.6883   -0.0000 </r>
       <r>    3.7397   -0.0000 </r>
      </set>
     </set>
    </set>
   </array>
  </eigenvalues>
  <separator name="orbital magnetization" >
   <v name="MAGDIPOLOUT">      0.00000000      0.00000000      0.00000000</v>
  </separator>
  <dos>
   <i name="efermi">      0.65680233 </i>
   <total>
    <array>
     <dimension dim="1">gridpoints</dimension>
     <dimension dim="2">spin</dimension>
     <field>energy</field>
     <field>total</field>
     <field>integrated</field>
     <set>
      <set comment="spin 1">
       <r>    -4.6281     0.0000     0.0000 </r>
       <r>    -4.5774     0.0000     0.0000 </r>
       <r>    -4.5267     0.0000     0.0000 </r>
       <r>    -4.4760     0.0000     0.0000 </r>
       <r>    -4.4254     0.0000     0.0000 </r>
       <r>    -4.3747     0.0000     0.0000 </r>
       <r>    -4.3240     0.0000     0.0000 </r>
       <r>    -4.2733    -0.0000    -0.0000 </r>
       <r>    -4.2227    -0.0000    -0.0000 </r>
       <r>    -4.1720    -0.0000    -0.0000 </r>
       <r>    -4.1213    -0.0000    -0.0000 </r>
       <r>    -4.0706    -0.0000    -0.0000 </r>
       <r>    -4.0200    -0.0000    -0.0000 </r>
       <r>    -3.9693    -0.0000    -0.0000 </r>
       <r>    -3.9186    -0.0000    -0.0000 </r>
       <r>    -3.8679    -0.0000    -0.0000 </r>
       <r>    -3.8173    -0.0000    -0.0000 </r>
       <r>    -3.7666    -0.0000    -0.0000 </r>
       <r>    -3.7159    -0.0000    -0.0000 </r>
       <r>    -3.6652    -0.0000    -0.0000 </r>
       <r>    -3.6146    -0.0000    -0.0000 </r>
       <r>    -3.5639    -0.0000    -0.0000 </r>
       <r>    -3.5132    -0.0000    -0.0000 </r>
       <r>    -3.4625    -0.0000    -0.0000 </r>
       <r>    -3.4119    -0.0000    -0.0000 </r>
       <r>    -3.3612    -0.0000    -0.0000 </r>
       <r>    -3.3105    -0.0000    -0.0000 </r>
       <r>    -3.2598    -0.0000    -0.0000 </r>
       <r>    -3.2092    -0.0000    -0.0000 </r>
       <r>    -3.1585    -0.0000    -0.0000 </r>
       <r>    -3.1078    -0.0001    -0.0000 </r>
       <r>    -3.0571    -0.0003    -0.0000 </r>
       <r>    -3.0065    -0.0008    -0.0001 </r>
       <r>    -2.9558    -0.0017    -0.0001 </r>
       <r>    -2.9051    -0.0033    -0.0003 </r>
       <r>    -2.8544    -0.0052    -0.0006 </r>
       <r>    -2.8038    -0.0059    -0.0009 </r>
       <r>    -2.7531    -0.0029    -0.0010 </r>
       <r>    -2.7024     0.0071    -0.0007 </r>
       <r>    -2.6517     0.0270     0.0007 </r>
       <r>    -2.6011     0.0572     0.0036 </r>
       <r>    -2.5504     0.0958     0.0085 </r>
       <r>    -2.4997     0.1387     0.0155 </r>
       <r>    -2.4490     0.1806     0.0246 </r>
       <r>    -2.3983     0.2166     0.0356 </r>
       <r>    -2.3477     0.2443     0.0480 </r>
       <r>    -2.2970     0.2655     0.0614 </r>
       <r>    -2.2463     0.2858     0.0759 </r>
       <r>    -2.1956     0.3099     0.0916 </r>
       <r>    -2.1450     0.3369     0.1087 </r>
       <r>    -2.0943     0.3615     0.1270 </r>
       <r>    -2.0436     0.3783     0.1462 </r>
       <r>    -1.9929     0.3859     0.1658 </r>
       <r>    -1.9423     0.3878     0.1854 </r>
       <r>    -1.8916     0.3912     0.2052 </r>
       <r>    -1.8409     0.4048     0.2257 </r>
       <r>    -1.7902     0.4338     0.2477 </r>
       <r>    -1.7396     0.4744     0.2718 </r>
       <r>    -1.6889     0.5129     0.2978 </r>
       <r>    -1.6382     0.5327     0.3248 </r>
       <r>    -1.5875     0.5250     0.3514 </r>
       <r>    -1.5369     0.4963     0.3765 </r>
       <r>    -1.4862     0.4673     0.4002 </r>
       <r>    -1.4355     0.4628     0.4236 </r>
       <r>    -1.3848     0.4957     0.4488 </r>
       <r>    -1.3342     0.5575     0.4770 </r>
       <r>    -1.2835     0.6227     0.5086 </r>
       <r>    -1.2328     0.6646     0.5422 </r>
       <r>    -1.1821     0.6697     0.5762 </r>
       <r>    -1.1315     0.6422     0.6087 </r>
       <r>    -1.0808     0.6006     0.6392 </r>
       <r>    -1.0301     0.5700     0.6680 </r>
       <r>    -0.9794     0.5698     0.6969 </r>
       <r>    -0.9288     0.6014     0.7274 </r>
       <r>    -0.8781     0.6465     0.7602 </r>
       <r>    -0.8274     0.6806     0.7946 </r>
       <r>    -0.7767     0.6918     0.8297 </r>
       <r>    -0.7261     0.6890     0.8646 </r>
       <r>    -0.6754     0.6929     0.8997 </r>
       <r>    -0.6247     0.7188     0.9362 </r>
       <r>    -0.5740     0.7634     0.9748 </r>
       <r>    -0.5234     0.8065     1.0157 </r>
       <r>    -0.4727     0.8251     1.0575 </r>
       <r>    -0.4220     0.8076     1.0984 </r>
       <r>    -0.3713     0.7580     1.1369 </r>
       <r>    -0.3207     0.6938     1.1720 </r>
       <r>    -0.2700     0.6412     1.2045 </r>
       <r>    -0.2193     0.6286     1.2364 </r>
       <r>    -0.1686     0.6725     1.2704 </r>
       <r>    -0.1180     0.7651     1.3092 </r>
       <r>    -0.0673     0.8754     1.3536 </r>
       <r>    -0.0166     0.9655     1.4025 </r>
       <r>     0.0341     1.0091     1.4536 </r>
       <r>     0.0847     0.9990     1.5043 </r>
       <r>     0.1354     0.9458     1.5522 </r>
       <r>     0.1861     0.8727     1.5964 </r>
       <r>     0.2368     0.8082     1.6374 </r>
       <r>     0.2874     0.7739     1.6766 </r>
       <r>     0.3381     0.7758     1.7159 </r>
       <r>     0.3888     0.8022     1.7565 </r>
       <r>     0.4395     0.8346     1.7988 </r>
       <r>     0.4901     0.8616     1.8425 </r>
       <r>     0.5408     0.8886     1.8875 </r>
       <r>     0.5915     0.9300     1.9347 </r>
       <r>     0.6422     0.9909     1.9849 </r>
       <r>     0.6928     1.0546     2.0383 </r>
       <r>     0.7435     1.0908     2.0936 </r>
       <r>     0.7942     1.0778     2.1482 </r>
       <r>     0.8449     1.0213     2.2000 </r>
       <r>     0.8955     0.9559     2.2484 </r>
       <r>     0.9462     0.9260     2.2953 </r>
       <r>     0.9969     0.9572     2.3438 </r>
       <r>     1.0476     1.0345     2.3962 </r>
       <r>     1.0982     1.1093     2.4525 </r>
       <r>     1.1489     1.1330     2.5099 </r>
       <r>     1.1996     1.0919     2.5652 </r>
       <r>     1.2503     1.0176     2.6168 </r>
       <r>     1.3009     0.9656     2.6657 </r>
       <r>     1.3516     0.9773     2.7152 </r>
       <r>     1.4023     1.0523     2.7686 </r>
       <r>     1.4530     1.1494     2.8268 </r>
       <r>     1.5036     1.2156     2.8884 </r>
       <r>     1.5543     1.2229     2.9504 </r>
       <r>     1.6050     1.1834     3.0104 </r>
       <r>     1.6557     1.1360     3.0679 </r>
       <r>     1.7063     1.1145     3.1244 </r>
       <r>     1.7570     1.1237     3.1813 </r>
       <r>     1.8077     1.1383     3.2390 </r>
       <r>     1.8584     1.1272     3.2962 </r>
       <r>     1.9090     1.0815     3.3510 </r>
       <r>     1.9597     1.0204     3.4027 </r>
       <r>     2.0104     0.9705     3.4518 </r>
       <r>     2.0611     0.9409     3.4995 </r>
       <r>     2.1117     0.9203     3.5462 </r>
       <r>     2.1624     0.8970     3.5916 </r>
       <r>     2.2131     0.8777     3.6361 </r>
       <r>     2.2638     0.8869     3.6810 </r>
       <r>     2.3144     0.9479     3.7291 </r>
       <r>     2.3651     1.0642     3.7830 </r>
       <r>     2.4158     1.2140     3.8445 </r>
       <r>     2.4665     1.3598     3.9134 </r>
       <r>     2.5171     1.4656     3.9877 </r>
       <r>     2.5678     1.5118     4.0643 </r>
       <r>     2.6185     1.5000     4.1403 </r>
       <r>     2.6692     1.4426     4.2134 </r>
       <r>     2.7198     1.3485     4.2818 </r>
       <r>     2.7705     1.2194     4.3436 </r>
       <r>     2.8212     1.0654     4.3975 </r>
       <r>     2.8719     0.9218     4.4443 </r>
       <r>     2.9226     0.8458     4.4871 </r>
       <r>     2.9732     0.8866     4.5320 </r>
       <r>     3.0239     1.0495     4.5852 </r>
       <r>     3.0746     1.2874     4.6505 </r>
       <r>     3.1253     1.5257     4.7278 </r>
       <r>     3.1759     1.6996     4.8139 </r>
       <r>     3.2266     1.7732     4.9038 </r>
       <r>     3.2773     1.7352     4.9917 </r>
       <r>     3.3280     1.5907     5.0723 </r>
       <r>     3.3786     1.3640     5.1414 </r>
       <r>     3.4293     1.1084     5.1976 </r>
       <r>     3.4800     0.9011     5.2433 </r>
       <r>     3.5307     0.8152     5.2846 </r>
       <r>     3.5813     0.8803     5.3292 </r>
       <r>     3.6320     1.0607     5.3829 </r>
       <r>     3.6827     1.2699     5.4473 </r>
       <r>     3.7334     1.4154     5.5190 </r>
       <r>     3.7840     1.4439     5.5922 </r>
       <r>     3.8347     1.3628     5.6613 </r>
       <r>     3.8854     1.2302     5.7236 </r>
       <r>     3.9361     1.1262     5.7807 </r>
       <r>     3.9867     1.1162     5.8372 </r>
       <r>     4.0374     1.2159     5.8988 </r>
       <r>     4.0881     1.3746     5.9685 </r>
       <r>     4.1388     1.4932     6.0442 </r>
       <r>     4.1894     1.4825     6.1193 </r>
       <r>     4.2401     1.3275     6.1866 </r>
       <r>     4.2908     1.1077     6.2427 </r>
       <r>     4.3415     0.9506     6.2909 </r>
       <r>     4.3921     0.9488     6.3389 </r>
       <r>     4.4428     1.1000     6.3947 </r>
       <r>     4.4935     1.3107     6.4611 </r>
       <r>     4.5442     1.4585     6.5350 </r>
       <r>     4.5948     1.4702     6.6095 </r>
       <r>     4.6455     1.3630     6.6786 </r>
       <r>     4.6962     1.2214     6.7405 </r>
       <r>     4.7469     1.1312     6.7978 </r>
       <r>     4.7975     1.1253     6.8548 </r>
       <r>     4.8482     1.1790     6.9146 </r>
       <r>     4.8989     1.2458     6.9777 </r>
       <r>     4.9496     1.2916     7.0432 </r>
       <r>     5.0002     1.3026     7.1092 </r>
       <r>     5.0509     1.2742     7.1737 </r>
       <r>     5.1016     1.2042     7.2348 </r>
       <r>     5.1523     1.1000     7.2905 </r>
       <r>     5.2029     0.9894     7.3406 </r>
       <r>     5.2536     0.9175     7.3871 </r>
       <r>     5.3043     0.9255     7.4340 </r>
       <r>     5.3550     1.0253     7.4860 </r>
       <r>     5.4056     1.1893     7.5463 </r>
       <r>     5.4563     1.3648     7.6154 </r>
       <r>     5.5070     1.5028     7.6916 </r>
       <r>     5.5577     1.5794     7.7716 </r>
       <r>     5.6083     1.5932     7.8524 </r>
       <r>     5.6590     1.5500     7.9309 </r>
       <r>     5.7097     1.4542     8.0046 </r>
       <r>     5.7604     1.3162     8.0713 </r>
       <r>     5.8110     1.1636     8.1303 </r>
       <r>     5.8617     1.0352     8.1827 </r>
       <r>     5.9124     0.9584     8.2313 </r>
       <r>     5.9631     0.9323     8.2785 </r>
       <r>     6.0137     0.9360     8.3260 </r>
       <r>     6.0644     0.9521     8.3742 </r>
       <r>     6.1151     0.9837     8.4241 </r>
       <r>     6.1658     1.0465     8.4771 </r>
       <r>     6.2164     1.1461     8.5352 </r>
       <r>     6.2671     1.2613     8.5991 </r>
       <r>     6.3178     1.3494     8.6675 </r>
       <r>     6.3685     1.3699     8.7369 </r>
       <r>     6.4191     1.3113     8.8033 </r>
       <r>     6.4698     1.1991     8.8641 </r>
       <r>     6.5205     1.0812     8.9189 </r>
       <r>     6.5712     0.9974     8.9694 </r>
       <r>     6.6218     0.9567     9.0179 </r>
       <r>     6.6725     0.9357     9.0653 </r>
       <r>     6.7232     0.9013     9.1110 </r>
       <r>     6.7739     0.8397     9.1536 </r>
       <r>     6.8245     0.7696     9.1926 </r>
       <r>     6.8752     0.7298     9.2295 </r>
       <r>     6.9259     0.7514     9.2676 </r>
       <r>     6.9766     0.8372     9.3100 </r>
       <r>     7.0272     0.9596     9.3587 </r>
       <r>     7.0779     1.0744     9.4131 </r>
       <r>     7.1286     1.1404     9.4709 </r>
       <r>     7.1793     1.1342     9.5284 </r>
       <r>     7.2299     1.0579     9.5820 </r>
       <r>     7.2806     0.9360     9.6294 </r>
       <r>     7.3313     0.8035     9.6701 </r>
       <r>     7.3820     0.6882     9.7050 </r>
       <r>     7.4326     0.6000     9.7354 </r>
       <r>     7.4833     0.5317     9.7624 </r>
       <r>     7.5340     0.4708     9.7862 </r>
       <r>     7.5847     0.4114     9.8071 </r>
       <r>     7.6353     0.3579     9.8252 </r>
       <r>     7.6860     0.3180     9.8413 </r>
       <r>     7.7367     0.2927     9.8562 </r>
       <r>     7.7874     0.2732     9.8700 </r>
       <r>     7.8380     0.2479     9.8826 </r>
       <r>     7.8887     0.2127     9.8933 </r>
       <r>     7.9394     0.1749     9.9022 </r>
       <r>     7.9901     0.1483     9.9097 </r>
       <r>     8.0407     0.1429     9.9170 </r>
       <r>     8.0914     0.1583     9.9250 </r>
       <r>     8.1421     0.1831     9.9343 </r>
       <r>     8.1928     0.2023     9.9445 </r>
       <r>     8.2435     0.2064     9.9550 </r>
       <r>     8.2941     0.1946     9.9648 </r>
       <r>     8.3448     0.1718     9.9735 </r>
       <r>     8.3955     0.1434     9.9808 </r>
       <r>     8.4462     0.1140     9.9866 </r>
       <r>     8.4968     0.0873     9.9910 </r>
       <r>     8.5475     0.0658     9.9943 </r>
       <r>     8.5982     0.0493     9.9968 </r>
       <r>     8.6489     0.0355     9.9986 </r>
       <r>     8.6995     0.0225     9.9998 </r>
       <r>     8.7502     0.0110    10.0003 </r>
       <r>     8.8009     0.0027    10.0005 </r>
       <r>     8.8516    -0.0017    10.0004 </r>
       <r>     8.9022    -0.0029    10.0002 </r>
       <r>     8.9529    -0.0024    10.0001 </r>
       <r>     9.0036    -0.0014    10.0001 </r>
       <r>     9.0543    -0.0007    10.0000 </r>
       <r>     9.1049    -0.0003    10.0000 </r>
       <r>     9.1556    -0.0001    10.0000 </r>
       <r>     9.2063    -0.0000    10.0000 </r>
       <r>     9.2570    -0.0000    10.0000 </r>
       <r>     9.3076    -0.0000    10.0000 </r>
       <r>     9.3583    -0.0000    10.0000 </r>
       <r>     9.4090    -0.0000    10.0000 </r>
       <r>     9.4597    -0.0000    10.0000 </r>
       <r>     9.5103    -0.0000    10.0000 </r>
       <r>     9.5610    -0.0000    10.0000 </r>
       <r>     9.6117    -0.0000    10.0000 </r>
       <r>     9.6624    -0.0000    10.0000 </r>
       <r>     9.7130    -0.0000    10.0000 </r>
       <r>     9.7637    -0.0000    10.0000 </r>
       <r>     9.8144    -0.0000    10.0000 </r>
       <r>     9.8651     0.0000    10.0000 </r>
       <r>     9.9157     0.0000    10.0000 </r>
       <r>     9.9664     0.0000    10.0000 </r>
       <r>    10.0171     0.0000    10.0000 </r>
       <r>    10.0678     0.0000    10.0000 </r>
       <r>    10.1184     0.0000    10.0000 </r>
       <r>    10.1691     0.0000    10.0000 </r>
       <r>    10.2198     0.0000    10.0000 </r>
       <r>    10.2705     0.0000    10.0000 </r>
       <r>    10.3211     0.0000    10.0000 </r>
       <r>    10.3718     0.0000    10.0000 </r>
       <r>    10.4225     0.0000    10.0000 </r>
       <r>    10.4732     0.0000    10.0000 </r>
       <r>    10.5238     0.0000    10.0000 </r>
       <r>    10.5745     0.0000    10.0000 </r>
      </set>
     </set>
    </array>
   </total>
  </dos>
 </calculation>
 <structure name="finalpos" >
  <crystal>
   <varray name="basis" >
    <v>       4.20338086       0.00000000      -0.00000000 </v>
    <v>       0.00000000       4.20338086       0.00000000 </v>
    <v>      -0.00000000      -0.00000000       4.20338086 </v>
   </varray>
   <i name="volume">     74.26705907 </i>
   <varray name="rec_basis" >
    <v>       0.23790373      -0.00000000       0.00000000 </v>
    <v>      -0.00000000       0.23790373       0.00000000 </v>
    <v>       0.00000000      -0.00000000       0.23790373 </v>
   </varray>
  </crystal>
  <varray name="positions" >
   <v>      -0.00000000      -0.00000000       0.00000000 </v>
   <v>       0.50000000       0.50000000       0.50000000 </v>
  </varray>
 </structure>
</modeling>
