unknown system                          
   1.0000000000000000     
     4.282000    0.000000    0.000000
     0.000000    4.282000    0.000000
     0.000000    0.000000    4.282000
   Na
     2
Direct
  0.000000  0.000000  0.000000
  0.500000  0.500000  0.500000

   48   48   48
 0.89392     0.88109     0.84647     0.80085     0.76004     0.74217     0.76434     0.83846     0.96688      1.1399    
  1.3371      1.5338      1.7080      1.8465      1.9481      2.0197      2.0691      2.1020      2.1224      2.1329    
  2.1367      2.1367      2.1353      2.1340      2.1335      2.1340      2.1353      2.1367      2.1367      2.1329    
  2.1224      2.1020      2.0691      2.0197      1.9481      1.8465      1.7080      1.5338      1.3371      1.1399    
 0.96688     0.83846     0.76434     0.74217     0.76004     0.80085     0.84647     0.88109     0.88109     0.86892    
 0.83617     0.79344     0.75624     0.74235     0.76843     0.84590     0.97660      1.1505      1.3473      1.5425    
  1.7148      1.8514      1.9515      2.0221      2.0708      2.1033      2.1233      2.1336      2.1372      2.1370    
  2.1356      2.1343      2.1339      2.1343      2.1356      2.1370      2.1372      2.1336      2.1233      2.1033    
  2.0708      2.0221      1.9515      1.8514      1.7148      1.5425      1.3473      1.1505     0.97660     0.84590    
 0.76843     0.74235     0.75624     0.79344     0.83617     0.86892     0.84647     0.83617     0.80882     0.77443    
 0.74767     0.74525     0.78253     0.86942      1.0064      1.1825      1.3776      1.5683      1.7348      1.8657    
  1.9615      2.0292      2.0759      2.1070      2.1259      2.1354      2.1384      2.1380      2.1365      2.1352    
  2.1347      2.1352      2.1365      2.1380      2.1384      2.1354      2.1259      2.1070      2.0759      2.0292    
  1.9615      1.8657      1.7348      1.5683      1.3776      1.1825      1.0064     0.86942     0.78253     0.74525    
 0.74767     0.77443     0.80882     0.83617     0.80085     0.79344     0.77443     0.75295     0.74230     0.75744    
 0.81155     0.91213      1.0575      1.2357      1.4270      1.6097      1.7664      1.8882      1.9773      2.0403    
  2.0838      2.1127      2.1298      2.1381      2.1403      2.1394      2.1377      2.1364      2.1360      2.1364    
  2.1377      2.1394      2.1403      2.1381      2.1298      2.1127      2.0838      2.0403      1.9773      1.8882    
  1.7664      1.6097      1.4270      1.2357      1.0575     0.91213     0.81155     0.75744     0.74230     0.75295    
 0.77443     0.79344     0.76004     0.75624     0.74767     0.74230     0.75162     0.78813     0.86208     0.97782    
  1.1312      1.3092      1.4932      1.6639      1.8072      1.9172      1.9975      2.0545      2.0940      2.1198    
  2.1348      2.1413      2.1425      2.1410      2.1391      2.1378      2.1374      2.1378      2.1391      2.1410    
  2.1425      2.1413      2.1348      2.1198      2.0940      2.0545      1.9975      1.9172      1.8072      1.6639    
  1.4932      1.3092      1.1312     0.97782     0.86208     0.78813     0.75162     0.74230     0.74767     0.75624    
 0.74217     0.74235     0.74525     0.75744     0.78813     0.84681     0.94014      1.0691      1.2270      1.4005    
  1.5726      1.7274      1.8540      1.9503      2.0207      2.0709      2.1056      2.1279      2.1401      2.1448    
  2.1447      2.1426      2.1405      2.1392      2.1387      2.1392      2.1405      2.1426      2.1447      2.1448    
  2.1401      2.1279      2.1056      2.0709      2.0207      1.9503      1.8540      1.7274      1.5726      1.4005    
  1.2270      1.0691     0.94014     0.84681     0.78813     0.75744     0.74525     0.74235     0.76434     0.76843    
 0.78253     0.81155     0.86208     0.94014      1.0487      1.1853      1.3418      1.5050      1.6603      1.7955    
  1.9036      1.9854      2.0454      2.0884      2.1178      2.1362      2.1455      2.1482      2.1469      2.1442    
  2.1418      2.1404      2.1400      2.1404      2.1418      2.1442      2.1469      2.1482      2.1455      2.1362    
  2.1178      2.0884      2.0454      1.9854      1.9036      1.7955      1.6603      1.5050      1.3418      1.1853    
  1.0487     0.94014     0.86208     0.81155     0.78253     0.76843     0.83846     0.84590     0.86942     0.91213    
 0.97782      1.0691      1.1853      1.3218      1.4693      1.6160      1.7503      1.8634      1.9527      2.0204    
  2.0702      2.1058      2.1299      2.1443      2.1506      2.1513      2.1488      2.1456      2.1431      2.1417    
  2.1412      2.1417      2.1431      2.1456      2.1488      2.1513      2.1506      2.1443      2.1299      2.1058    
  2.0702      2.0204      1.9527      1.8634      1.7503      1.6160      1.4693      1.3218      1.1853      1.0691    
 0.97782     0.91213     0.86942     0.84590     0.96688     0.97660      1.0064      1.0575      1.1312      1.2270    
  1.3418      1.4693      1.6005      1.7257      1.8363      1.9274      1.9990      2.0535      2.0938      2.1225    
  2.1412      2.1516      2.1551      2.1540      2.1506      2.1470      2.1443      2.1429      2.1424      2.1429    
  2.1443      2.1470      2.1506      2.1540      2.1551      2.1516      2.1412      2.1225      2.0938      2.0535    
  1.9990      1.9274      1.8363      1.7257      1.6005      1.4693      1.3418      1.2270      1.1312      1.0575    
  1.0064     0.97660      1.1399      1.1505      1.1825      1.2357      1.3092      1.4005      1.5050      1.6160    
  1.7257      1.8266      1.9135      1.9846      2.0408      2.0837      2.1154      2.1374      2.1511      2.1577    
  2.1588      2.1562      2.1522      2.1484      2.1456      2.1440      2.1435      2.1440      2.1456      2.1484    
  2.1522      2.1562      2.1588      2.1577      2.1511      2.1374      2.1154      2.0837      2.0408      1.9846    
  1.9135      1.8266      1.7257      1.6160      1.5050      1.4005      1.3092      1.2357      1.1825      1.1505    
  1.3371      1.3473      1.3776      1.4270      1.4932      1.5726      1.6603      1.7503      1.8363      1.9135    
  1.9796      2.0339      2.0770      2.1100      2.1341      2.1501      2.1592      2.1625      2.1614      2.1579    
  2.1536      2.1496      2.1467      2.1451      2.1445      2.1451      2.1467      2.1496      2.1536      2.1579    
  2.1614      2.1625      2.1592      2.1501      2.1341      2.1100      2.0770      2.0339      1.9796      1.9135    
  1.8363      1.7503      1.6603      1.5726      1.4932      1.4270      1.3776      1.3473      1.5338      1.5425    
  1.5683      1.6097      1.6639      1.7274      1.7955      1.8634      1.9274      1.9846      2.0339      2.0746    
  2.1072      2.1319      2.1493      2.1601      2.1651      2.1656      2.1631      2.1591      2.1546      2.1507    
  2.1477      2.1458      2.1452      2.1458      2.1477      2.1507      2.1546      2.1591      2.1631      2.1656    
  2.1651      2.1601      2.1493      2.1319      2.1072      2.0746      2.0339      1.9846      1.9274      1.8634    
  1.7955      1.7274      1.6639      1.6097      1.5683      1.5425      1.7080      1.7148      1.7348      1.7664    
  1.8072      1.8540      1.9036      1.9527      1.9990      2.0408      2.0770      2.1072      2.1312      2.1489    
  2.1606      2.1669      2.1687      2.1672      2.1638      2.1596      2.1552      2.1513      2.1482      2.1461    
  2.1455      2.1461      2.1482      2.1513      2.1552      2.1596      2.1638      2.1672      2.1687      2.1669    
  2.1606      2.1489      2.1312      2.1072      2.0770      2.0408      1.9990      1.9527      1.9036      1.8540    
  1.8072      1.7664      1.7348      1.7148      1.8465      1.8514      1.8657      1.8882      1.9172      1.9503    
  1.9854      2.0204      2.0535      2.0837      2.1100      2.1319      2.1489      2.1609      2.1679      2.1706    
  2.1701      2.1674      2.1636      2.1594      2.1552      2.1513      2.1481      2.1460      2.1452      2.1460    
  2.1481      2.1513      2.1552      2.1594      2.1636      2.1674      2.1701      2.1706      2.1679      2.1609    
  2.1489      2.1319      2.1100      2.0837      2.0535      2.0204      1.9854      1.9503      1.9172      1.8882    
  1.8657      1.8514      1.9481      1.9515      1.9615      1.9773      1.9975      2.0207      2.0454      2.0702    
  2.0938      2.1154      2.1341      2.1493      2.1606      2.1679      2.1713      2.1716      2.1696      2.1664    
  2.1625      2.1585      2.1546      2.1508      2.1476      2.1453      2.1445      2.1453      2.1476      2.1508    
  2.1546      2.1585      2.1625      2.1664      2.1696      2.1716      2.1713      2.1679      2.1606      2.1493    
  2.1341      2.1154      2.0938      2.0702      2.0454      2.0207      1.9975      1.9773      1.9615      1.9515    
  2.0197      2.0221      2.0292      2.0403      2.0545      2.0709      2.0884      2.1058      2.1225      2.1374    
  2.1501      2.1601      2.1669      2.1706      2.1716      2.1704      2.1677      2.1644      2.1607      2.1570    
  2.1532      2.1496      2.1465      2.1443      2.1435      2.1443      2.1465      2.1496      2.1532      2.1570    
  2.1607      2.1644      2.1677      2.1704      2.1716      2.1706      2.1669      2.1601      2.1501      2.1374    
  2.1225      2.1058      2.0884      2.0709      2.0545      2.0403      2.0292      2.0221      2.0691      2.0708    
  2.0759      2.0838      2.0940      2.1056      2.1178      2.1299      2.1412      2.1511      2.1592      2.1651    
  2.1687      2.1701      2.1696      2.1677      2.1650      2.1618      2.1583      2.1548      2.1513      2.1479    
  2.1451      2.1431      2.1424      2.1431      2.1451      2.1479      2.1513      2.1548      2.1583      2.1618    
  2.1650      2.1677      2.1696      2.1701      2.1687      2.1651      2.1592      2.1511      2.1412      2.1299    
  2.1178      2.1056      2.0940      2.0838      2.0759      2.0708      2.1020      2.1033      2.1070      2.1127    
  2.1198      2.1279      2.1362      2.1443      2.1516      2.1577      2.1625      2.1656      2.1672      2.1674    
  2.1664      2.1644      2.1618      2.1587      2.1554      2.1521      2.1488      2.1458      2.1434      2.1418    
  2.1412      2.1418      2.1434      2.1458      2.1488      2.1521      2.1554      2.1587      2.1618      2.1644    
  2.1664      2.1674      2.1672      2.1656      2.1625      2.1577      2.1516      2.1443      2.1362      2.1279    
  2.1198      2.1127      2.1070      2.1033      2.1224      2.1233      2.1259      2.1298      2.1348      2.1401    
  2.1455      2.1506      2.1551      2.1588      2.1614      2.1631      2.1638      2.1636      2.1625      2.1607    
  2.1583      2.1554      2.1523      2.1491      2.1461      2.1436      2.1416      2.1404      2.1400      2.1404    
  2.1416      2.1436      2.1461      2.1491      2.1523      2.1554      2.1583      2.1607      2.1625      2.1636    
  2.1638      2.1631      2.1614      2.1588      2.1551      2.1506      2.1455      2.1401      2.1348      2.1298    
  2.1259      2.1233      2.1329      2.1336      2.1354      2.1381      2.1413      2.1448      2.1482      2.1513    
  2.1540      2.1562      2.1579      2.1591      2.1596      2.1594      2.1585      2.1570      2.1548      2.1521    
  2.1491      2.1461      2.1435      2.1414      2.1399      2.1390      2.1387      2.1390      2.1399      2.1414    
  2.1435      2.1461      2.1491      2.1521      2.1548      2.1570      2.1585      2.1594      2.1596      2.1591    
  2.1579      2.1562      2.1540      2.1513      2.1482      2.1448      2.1413      2.1381      2.1354      2.1336    
  2.1367      2.1372      2.1384      2.1403      2.1425      2.1447      2.1469      2.1488      2.1506      2.1522    
  2.1536      2.1546      2.1552      2.1552      2.1546      2.1532      2.1513      2.1488      2.1461      2.1435    
  2.1412      2.1395      2.1383      2.1376      2.1374      2.1376      2.1383      2.1395      2.1412      2.1435    
  2.1461      2.1488      2.1513      2.1532      2.1546      2.1552      2.1552      2.1546      2.1536      2.1522    
  2.1506      2.1488      2.1469      2.1447      2.1425      2.1403      2.1384      2.1372      2.1367      2.1370    
  2.1380      2.1394      2.1410      2.1426      2.1442      2.1456      2.1470      2.1484      2.1496      2.1507    
  2.1513      2.1513      2.1508      2.1496      2.1479      2.1458      2.1436      2.1414      2.1395      2.1379    
  2.1368      2.1362      2.1360      2.1362      2.1368      2.1379      2.1395      2.1414      2.1436      2.1458    
  2.1479      2.1496      2.1508      2.1513      2.1513      2.1507      2.1496      2.1484      2.1470      2.1456    
  2.1442      2.1426      2.1410      2.1394      2.1380      2.1370      2.1353      2.1356      2.1365      2.1377    
  2.1391      2.1405      2.1418      2.1431      2.1443      2.1456      2.1467      2.1477      2.1482      2.1481    
  2.1476      2.1465      2.1451      2.1434      2.1416      2.1399      2.1383      2.1368      2.1357      2.1350    
  2.1347      2.1350      2.1357      2.1368      2.1383      2.1399      2.1416      2.1434      2.1451      2.1465    
  2.1476      2.1481      2.1482      2.1477      2.1467      2.1456      2.1443      2.1431      2.1418      2.1405    
  2.1391      2.1377      2.1365      2.1356      2.1340      2.1343      2.1352      2.1364      2.1378      2.1392    
  2.1404      2.1417      2.1429      2.1440      2.1451      2.1458      2.1461      2.1460      2.1453      2.1443    
  2.1431      2.1418      2.1404      2.1390      2.1376      2.1362      2.1350      2.1342      2.1339      2.1342    
  2.1350      2.1362      2.1376      2.1390      2.1404      2.1418      2.1431      2.1443      2.1453      2.1460    
  2.1461      2.1458      2.1451      2.1440      2.1429      2.1417      2.1404      2.1392      2.1378      2.1364    
  2.1352      2.1343      2.1335      2.1339      2.1347      2.1360      2.1374      2.1387      2.1400      2.1412    
  2.1424      2.1435      2.1445      2.1452      2.1455      2.1452      2.1445      2.1435      2.1424      2.1412    
  2.1400      2.1387      2.1374      2.1360      2.1347      2.1339      2.1335      2.1339      2.1347      2.1360    
  2.1374      2.1387      2.1400      2.1412      2.1424      2.1435      2.1445      2.1452      2.1455      2.1452    
  2.1445      2.1435      2.1424      2.1412      2.1400      2.1387      2.1374      2.1360      2.1347      2.1339    
  2.1340      2.1343      2.1352      2.1364      2.1378      2.1392      2.1404      2.1417      2.1429      2.1440    
  2.1451      2.1458      2.1461      2.1460      2.1453      2.1443      2.1431      2.1418      2.1404      2.1390    
  2.1376      2.1362      2.1350      2.1342      2.1339      2.1342      2.1350      2.1362      2.1376      2.1390    
  2.1404      2.1418      2.1431      2.1443      2.1453      2.1460      2.1461      2.1458      2.1451      2.1440    
  2.1429      2.1417      2.1404      2.1392      2.1378      2.1364      2.1352      2.1343      2.1353      2.1356    
  2.1365      2.1377      2.1391      2.1405      2.1418      2.1431      2.1443      2.1456      2.1467      2.1477    
  2.1482      2.1481      2.1476      2.1465      2.1451      2.1434      2.1416      2.1399      2.1383      2.1368    
  2.1357      2.1350      2.1347      2.1350      2.1357      2.1368      2.1383      2.1399      2.1416      2.1434    
  2.1451      2.1465      2.1476      2.1481      2.1482      2.1477      2.1467      2.1456      2.1443      2.1431    
  2.1418      2.1405      2.1391      2.1377      2.1365      2.1356      2.1367      2.1370      2.1380      2.1394    
  2.1410      2.1426      2.1442      2.1456      2.1470      2.1484      2.1496      2.1507      2.1513      2.1513    
  2.1508      2.1496      2.1479      2.1458      2.1436      2.1414      2.1395      2.1379      2.1368      2.1362    
  2.1360      2.1362      2.1368      2.1379      2.1395      2.1414      2.1436      2.1458      2.1479      2.1496    
  2.1508      2.1513      2.1513      2.1507      2.1496      2.1484      2.1470      2.1456      2.1442      2.1426    
  2.1410      2.1394      2.1380      2.1370      2.1367      2.1372      2.1384      2.1403      2.1425      2.1447    
  2.1469      2.1488      2.1506      2.1522      2.1536      2.1546      2.1552      2.1552      2.1546      2.1532    
  2.1513      2.1488      2.1461      2.1435      2.1412      2.1395      2.1383      2.1376      2.1374      2.1376    
  2.1383      2.1395      2.1412      2.1435      2.1461      2.1488      2.1513      2.1532      2.1546      2.1552    
  2.1552      2.1546      2.1536      2.1522      2.1506      2.1488      2.1469      2.1447      2.1425      2.1403    
  2.1384      2.1372      2.1329      2.1336      2.1354      2.1381      2.1413      2.1448      2.1482      2.1513    
  2.1540      2.1562      2.1579      2.1591      2.1596      2.1594      2.1585      2.1570      2.1548      2.1521    
  2.1491      2.1461      2.1435      2.1414      2.1399      2.1390      2.1387      2.1390      2.1399      2.1414    
  2.1435      2.1461      2.1491      2.1521      2.1548      2.1570      2.1585      2.1594      2.1596      2.1591    
  2.1579      2.1562      2.1540      2.1513      2.1482      2.1448      2.1413      2.1381      2.1354      2.1336    
  2.1224      2.1233      2.1259      2.1298      2.1348      2.1401      2.1455      2.1506      2.1551      2.1588    
  2.1614      2.1631      2.1638      2.1636      2.1625      2.1607      2.1583      2.1554      2.1523      2.1491    
  2.1461      2.1436      2.1416      2.1404      2.1400      2.1404      2.1416      2.1436      2.1461      2.1491    
  2.1523      2.1554      2.1583      2.1607      2.1625      2.1636      2.1638      2.1631      2.1614      2.1588    
  2.1551      2.1506      2.1455      2.1401      2.1348      2.1298      2.1259      2.1233      2.1020      2.1033    
  2.1070      2.1127      2.1198      2.1279      2.1362      2.1443      2.1516      2.1577      2.1625      2.1656    
  2.1672      2.1674      2.1664      2.1644      2.1618      2.1587      2.1554      2.1521      2.1488      2.1458    
  2.1434      2.1418      2.1412      2.1418      2.1434      2.1458      2.1488      2.1521      2.1554      2.1587    
  2.1618      2.1644      2.1664      2.1674      2.1672      2.1656      2.1625      2.1577      2.1516      2.1443    
  2.1362      2.1279      2.1198      2.1127      2.1070      2.1033      2.0691      2.0708      2.0759      2.0838    
  2.0940      2.1056      2.1178      2.1299      2.1412      2.1511      2.1592      2.1651      2.1687      2.1701    
  2.1696      2.1677      2.1650      2.1618      2.1583      2.1548      2.1513      2.1479      2.1451      2.1431    
  2.1424      2.1431      2.1451      2.1479      2.1513      2.1548      2.1583      2.1618      2.1650      2.1677    
  2.1696      2.1701      2.1687      2.1651      2.1592      2.1511      2.1412      2.1299      2.1178      2.1056    
  2.0940      2.0838      2.0759      2.0708      2.0197      2.0221      2.0292      2.0403      2.0545      2.0709    
  2.0884      2.1058      2.1225      2.1374      2.1501      2.1601      2.1669      2.1706      2.1716      2.1704    
  2.1677      2.1644      2.1607      2.1570      2.1532      2.1496      2.1465      2.1443      2.1435      2.1443    
  2.1465      2.1496      2.1532      2.1570      2.1607      2.1644      2.1677      2.1704      2.1716      2.1706    
  2.1669      2.1601      2.1501      2.1374      2.1225      2.1058      2.0884      2.0709      2.0545      2.0403    
  2.0292      2.0221      1.9481      1.9515      1.9615      1.9773      1.9975      2.0207      2.0454      2.0702    
  2.0938      2.1154      2.1341      2.1493      2.1606      2.1679      2.1713      2.1716      2.1696      2.1664    
  2.1625      2.1585      2.1546      2.1508      2.1476      2.1453      2.1445      2.1453      2.1476      2.1508    
  2.1546      2.1585      2.1625      2.1664      2.1696      2.1716      2.1713      2.1679      2.1606      2.1493    
  2.1341      2.1154      2.0938      2.0702      2.0454      2.0207      1.9975      1.9773      1.9615      1.9515    
  1.8465      1.8514      1.8657      1.8882      1.9172      1.9503      1.9854      2.0204      2.0535      2.0837    
  2.1100      2.1319      2.1489      2.1609      2.1679      2.1706      2.1701      2.1674      2.1636      2.1594    
  2.1552      2.1513      2.1481      2.1460      2.1452      2.1460      2.1481      2.1513      2.1552      2.1594    
  2.1636      2.1674      2.1701      2.1706      2.1679      2.1609      2.1489      2.1319      2.1100      2.0837    
  2.0535      2.0204      1.9854      1.9503      1.9172      1.8882      1.8657      1.8514      1.7080      1.7148    
  1.7348      1.7664      1.8072      1.8540      1.9036      1.9527      1.9990      2.0408      2.0770      2.1072    
  2.1312      2.1489      2.1606      2.1669      2.1687      2.1672      2.1638      2.1596      2.1552      2.1513    
  2.1482      2.1461      2.1455      2.1461      2.1482      2.1513      2.1552      2.1596      2.1638      2.1672    
  2.1687      2.1669      2.1606      2.1489      2.1312      2.1072      2.0770      2.0408      1.9990      1.9527    
  1.9036      1.8540      1.8072      1.7664      1.7348      1.7148      1.5338      1.5425      1.5683      1.6097    
  1.6639      1.7274      1.7955      1.8634      1.9274      1.9846      2.0339      2.0746      2.1072      2.1319    
  2.1493      2.1601      2.1651      2.1656      2.1631      2.1591      2.1546      2.1507      2.1477      2.1458    
  2.1452      2.1458      2.1477      2.1507      2.1546      2.1591      2.1631      2.1656      2.1651      2.1601    
  2.1493      2.1319      2.1072      2.0746      2.0339      1.9846      1.9274      1.8634      1.7955      1.7274    
  1.6639      1.6097      1.5683      1.5425      1.3371      1.3473      1.3776      1.4270      1.4932      1.5726    
  1.6603      1.7503      1.8363      1.9135      1.9796      2.0339      2.0770      2.1100      2.1341      2.1501    
  2.1592      2.1625      2.1614      2.1579      2.1536      2.1496      2.1467      2.1451      2.1445      2.1451    
  2.1467      2.1496      2.1536      2.1579      2.1614      2.1625      2.1592      2.1501      2.1341      2.1100    
  2.0770      2.0339      1.9796      1.9135      1.8363      1.7503      1.6603      1.5726      1.4932      1.4270    
  1.3776      1.3473      1.1399      1.1505      1.1825      1.2357      1.3092      1.4005      1.5050      1.6160    
  1.7257      1.8266      1.9135      1.9846      2.0408      2.0837      2.1154      2.1374      2.1511      2.1577    
  2.1588      2.1562      2.1522      2.1484      2.1456      2.1440      2.1435      2.1440      2.1456      2.1484    
  2.1522      2.1562      2.1588      2.1577      2.1511      2.1374      2.1154      2.0837      2.0408      1.9846    
  1.9135      1.8266      1.7257      1.6160      1.5050      1.4005      1.3092      1.2357      1.1825      1.1505    
 0.96688     0.97660      1.0064      1.0575      1.1312      1.2270      1.3418      1.4693      1.6005      1.7257    
  1.8363      1.9274      1.9990      2.0535      2.0938      2.1225      2.1412      2.1516      2.1551      2.1540    
  2.1506      2.1470      2.1443      2.1429      2.1424      2.1429      2.1443      2.1470      2.1506      2.1540    
  2.1551      2.1516      2.1412      2.1225      2.0938      2.0535      1.9990      1.9274      1.8363      1.7257    
  1.6005      1.4693      1.3418      1.2270      1.1312      1.0575      1.0064     0.97660     0.83846     0.84590    
 0.86942     0.91213     0.97782      1.0691      1.1853      1.3218      1.4693      1.6160      1.7503      1.8634    
  1.9527      2.0204      2.0702      2.1058      2.1299      2.1443      2.1506      2.1513      2.1488      2.1456    
  2.1431      2.1417      2.1412      2.1417      2.1431      2.1456      2.1488      2.1513      2.1506      2.1443    
  2.1299      2.1058      2.0702      2.0204      1.9527      1.8634      1.7503      1.6160      1.4693      1.3218    
  1.1853      1.0691     0.97782     0.91213     0.86942     0.84590     0.76434     0.76843     0.78253     0.81155    
 0.86208     0.94014      1.0487      1.1853      1.3418      1.5050      1.6603      1.7955      1.9036      1.9854    
  2.0454      2.0884      2.1178      2.1362      2.1455      2.1482      2.1469      2.1442      2.1418      2.1404    
  2.1400      2.1404      2.1418      2.1442      2.1469      2.1482      2.1455      2.1362      2.1178      2.0884    
  2.0454      1.9854      1.9036      1.7955      1.6603      1.5050      1.3418      1.1853      1.0487     0.94014    
 0.86208     0.81155     0.78253     0.76843     0.74217     0.74235     0.74525     0.75744     0.78813     0.84681    
 0.94014      1.0691      1.2270      1.4005      1.5726      1.7274      1.8540      1.9503      2.0207      2.0709    
  2.1056      2.1279      2.1401      2.1448      2.1447      2.1426      2.1405      2.1392      2.1387      2.1392    
  2.1405      2.1426      2.1447      2.1448      2.1401      2.1279      2.1056      2.0709      2.0207      1.9503    
  1.8540      1.7274      1.5726      1.4005      1.2270      1.0691     0.94014     0.84681     0.78813     0.75744    
 0.74525     0.74235     0.76004     0.75624     0.74767     0.74230     0.75162     0.78813     0.86208     0.97782    
  1.1312      1.3092      1.4932      1.6639      1.8072      1.9172      1.9975      2.0545      2.0940      2.1198    
  2.1348      2.1413      2.1425      2.1410      2.1391      2.1378      2.1374      2.1378      2.1391      2.1410    
  2.1425      2.1413      2.1348      2.1198      2.0940      2.0545      1.9975      1.9172      1.8072      1.6639    
  1.4932      1.3092      1.1312     0.97782     0.86208     0.78813     0.75162     0.74230     0.74767     0.75624    
 0.80085     0.79344     0.77443     0.75295     0.74230     0.75744     0.81155     0.91213      1.0575      1.2357    
  1.4270      1.6097      1.7664      1.8882      1.9773      2.0403      2.0838      2.1127      2.1298      2.1381    
  2.1403      2.1394      2.1377      2.1364      2.1360      2.1364      2.1377      2.1394      2.1403      2.1381    
  2.1298      2.1127      2.0838      2.0403      1.9773      1.8882      1.7664      1.6097      1.4270      1.2357    
  1.0575     0.91213     0.81155     0.75744     0.74230     0.75295     0.77443     0.79344     0.84647     0.83617    
 0.80882     0.77443     0.74767     0.74525     0.78253     0.86942      1.0064      1.1825      1.3776      1.5683    
  1.7348      1.8657      1.9615      2.0292      2.0759      2.1070      2.1259      2.1354      2.1384      2.1380    
  2.1365      2.1352      2.1347      2.1352      2.1365      2.1380      2.1384      2.1354      2.1259      2.1070    
  2.0759      2.0292      1.9615      1.8657      1.7348      1.5683      1.3776      1.1825      1.0064     0.86942    
 0.78253     0.74525     0.74767     0.77443     0.80882     0.83617     0.88109     0.86892     0.83617     0.79344    
 0.75624     0.74235     0.76843     0.84590     0.97660      1.1505      1.3473      1.5425      1.7148      1.8514    
  1.9515      2.0221      2.0708      2.1033      2.1233      2.1336      2.1372      2.1370      2.1356      2.1343    
  2.1339      2.1343      2.1356      2.1370      2.1372      2.1336      2.1233      2.1033      2.0708      2.0221    
  1.9515      1.8514      1.7148      1.5425      1.3473      1.1505     0.97660     0.84590     0.76843     0.74235    
 0.75624     0.79344     0.83617     0.86892     0.88109     0.86892     0.83617     0.79344     0.75624     0.74235    
 0.76843     0.84590     0.97660      1.1505      1.3473      1.5425      1.7148      1.8514      1.9515      2.0221    
  2.0708      2.1033      2.1233      2.1336      2.1372      2.1370      2.1356      2.1343      2.1339      2.1343    
  2.1356      2.1370      2.1372      2.1336      2.1233      2.1033      2.0708      2.0221      1.9515      1.8514    
  1.7148      1.5425      1.3473      1.1505     0.97660     0.84590     0.76843     0.74235     0.75624     0.79344    
 0.83617     0.86892     0.86892     0.85738     0.82647     0.78657     0.75292     0.74293     0.77284     0.85355    
 0.98643      1.1612      1.3575      1.5512      1.7215      1.8562      1.9549      2.0245      2.0725      2.1045    
  2.1241      2.1342      2.1376      2.1374      2.1359      2.1346      2.1342      2.1346      2.1359      2.1374    
  2.1376      2.1342      2.1241      2.1045      2.0725      2.0245      1.9549      1.8562      1.7215      1.5512    
  1.3575      1.1612     0.98643     0.85355     0.77284     0.74293     0.75292     0.78657     0.82647     0.85738    
 0.83617     0.82647     0.80085     0.76914     0.74573     0.74698     0.78782     0.87765      1.0165      1.1932    
  1.3877      1.5768      1.7413      1.8703      1.9647      2.0314      2.0775      2.1081      2.1267      2.1359    
  2.1388      2.1383      2.1367      2.1354      2.1350      2.1354      2.1367      2.1383      2.1388      2.1359    
  2.1267      2.1081      2.0775      2.0314      1.9647      1.8703      1.7413      1.5768      1.3877      1.1932    
  1.0165     0.87765     0.78782     0.74698     0.74573     0.76914     0.80085     0.82647     0.79344     0.78657    