unknown system                          
   1.0000000000000000     
     4.259643    0.000000    0.000000
     0.000000    4.259643    0.000000
    -0.000000    0.000000    4.259643
   Na
     2
Direct
  0.000000  0.000000  0.000000
  0.500000  0.500000  0.500000

   48   48   48
 0.89382     0.88100     0.84639     0.80079     0.76000     0.74214     0.76432     0.83845     0.96686      1.1398    
  1.3371      1.5338      1.7080      1.8465      1.9481      2.0197      2.0691      2.1021      2.1224      2.1330    
  2.1368      2.1367      2.1353      2.1341      2.1336      2.1341      2.1353      2.1367      2.1368      2.1330    
  2.1224      2.1021      2.0691      2.0197      1.9481      1.8465      1.7080      1.5338      1.3371      1.1398    
 0.96686     0.83845     0.76432     0.74214     0.76000     0.80079     0.84639     0.88100     0.88100     0.86883    
 0.83609     0.79338     0.75620     0.74232     0.76842     0.84589     0.97659      1.1505      1.3473      1.5425    
  1.7148      1.8514      1.9515      2.0221      2.0708      2.1033      2.1233      2.1336      2.1372      2.1371    
  2.1356      2.1344      2.1339      2.1344      2.1356      2.1371      2.1372      2.1336      2.1233      2.1033    
  2.0708      2.0221      1.9515      1.8514      1.7148      1.5425      1.3473      1.1505     0.97659     0.84589    
 0.76842     0.74232     0.75620     0.79338     0.83609     0.86883     0.84639     0.83609     0.80875     0.77438    
 0.74763     0.74523     0.78252     0.86941      1.0063      1.1824      1.3776      1.5683      1.7347      1.8657    
  1.9615      2.0292      2.0759      2.1070      2.1259      2.1354      2.1385      2.1380      2.1365      2.1352    
  2.1348      2.1352      2.1365      2.1380      2.1385      2.1354      2.1259      2.1070      2.0759      2.0292    
  1.9615      1.8657      1.7347      1.5683      1.3776      1.1824      1.0063     0.86941     0.78252     0.74523    
 0.74763     0.77438     0.80875     0.83609     0.80079     0.79338     0.77438     0.75291     0.74227     0.75742    
 0.81154     0.91212      1.0575      1.2357      1.4269      1.6096      1.7664      1.8882      1.9773      2.0403    
  2.0838      2.1127      2.1299      2.1381      2.1403      2.1395      2.1378      2.1365      2.1360      2.1365    
  2.1378      2.1395      2.1403      2.1381      2.1299      2.1127      2.0838      2.0403      1.9773      1.8882    
  1.7664      1.6096      1.4269      1.2357      1.0575     0.91212     0.81154     0.75742     0.74227     0.75291    
 0.77438     0.79338     0.76000     0.75620     0.74763     0.74227     0.75160     0.78812     0.86207     0.97780    
  1.1312      1.3092      1.4931      1.6639      1.8072      1.9172      1.9975      2.0545      2.0940      2.1198    
  2.1348      2.1414      2.1425      2.1411      2.1392      2.1379      2.1374      2.1379      2.1392      2.1411    
  2.1425      2.1414      2.1348      2.1198      2.0940      2.0545      1.9975      1.9172      1.8072      1.6639    
  1.4931      1.3092      1.1312     0.97780     0.86207     0.78812     0.75160     0.74227     0.74763     0.75620    
 0.74214     0.74232     0.74523     0.75742     0.78812     0.84680     0.94013      1.0690      1.2270      1.4005    
  1.5726      1.7273      1.8540      1.9503      2.0207      2.0709      2.1056      2.1279      2.1401      2.1448    
  2.1448      2.1427      2.1405      2.1392      2.1388      2.1392      2.1405      2.1427      2.1448      2.1448    
  2.1401      2.1279      2.1056      2.0709      2.0207      1.9503      1.8540      1.7273      1.5726      1.4005    
  1.2270      1.0690     0.94013     0.84680     0.78812     0.75742     0.74523     0.74232     0.76432     0.76842    
 0.78252     0.81154     0.86207     0.94013      1.0487      1.1853      1.3418      1.5050      1.6603      1.7955    
  1.9036      1.9854      2.0454      2.0884      2.1178      2.1362      2.1456      2.1482      2.1469      2.1442    
  2.1419      2.1405      2.1401      2.1405      2.1419      2.1442      2.1469      2.1482      2.1456      2.1362    
  2.1178      2.0884      2.0454      1.9854      1.9036      1.7955      1.6603      1.5050      1.3418      1.1853    
  1.0487     0.94013     0.86207     0.81154     0.78252     0.76842     0.83845     0.84589     0.86941     0.91212    
 0.97780      1.0690      1.1853      1.3218      1.4692      1.6159      1.7503      1.8634      1.9527      2.0204    
  2.0702      2.1058      2.1299      2.1443      2.1506      2.1513      2.1489      2.1457      2.1431      2.1417    
  2.1413      2.1417      2.1431      2.1457      2.1489      2.1513      2.1506      2.1443      2.1299      2.1058    
  2.0702      2.0204      1.9527      1.8634      1.7503      1.6159      1.4692      1.3218      1.1853      1.0690    
 0.97780     0.91212     0.86941     0.84589     0.96686     0.97659      1.0063      1.0575      1.1312      1.2270    
  1.3418      1.4692      1.6005      1.7257      1.8362      1.9274      1.9990      2.0535      2.0938      2.1224    
  2.1412      2.1516      2.1551      2.1540      2.1507      2.1471      2.1444      2.1429      2.1425      2.1429    
  2.1444      2.1471      2.1507      2.1540      2.1551      2.1516      2.1412      2.1224      2.0938      2.0535    
  1.9990      1.9274      1.8362      1.7257      1.6005      1.4692      1.3418      1.2270      1.1312      1.0575    
  1.0063     0.97659      1.1398      1.1505      1.1824      1.2357      1.3092      1.4005      1.5050      1.6159    
  1.7257      1.8266      1.9135      1.9846      2.0407      2.0836      2.1153      2.1374      2.1511      2.1577    
  2.1588      2.1563      2.1523      2.1484      2.1456      2.1441      2.1436      2.1441      2.1456      2.1484    
  2.1523      2.1563      2.1588      2.1577      2.1511      2.1374      2.1153      2.0836      2.0407      1.9846    
  1.9135      1.8266      1.7257      1.6159      1.5050      1.4005      1.3092      1.2357      1.1824      1.1505    
  1.3371      1.3473      1.3776      1.4269      1.4931      1.5726      1.6603      1.7503      1.8362      1.9135    
  1.9795      2.0338      2.0769      2.1100      2.1340      2.1501      2.1592      2.1625      2.1615      2.1580    
  2.1536      2.1497      2.1468      2.1451      2.1446      2.1451      2.1468      2.1497      2.1536      2.1580    
  2.1615      2.1625      2.1592      2.1501      2.1340      2.1100      2.0769      2.0338      1.9795      1.9135    
  1.8362      1.7503      1.6603      1.5726      1.4931      1.4269      1.3776      1.3473      1.5338      1.5425    
  1.5683      1.6096      1.6639      1.7273      1.7955      1.8634      1.9274      1.9846      2.0338      2.0746    
  2.1071      2.1319      2.1493      2.1601      2.1651      2.1656      2.1632      2.1591      2.1546      2.1507    
  2.1477      2.1459      2.1453      2.1459      2.1477      2.1507      2.1546      2.1591      2.1632      2.1656    
  2.1651      2.1601      2.1493      2.1319      2.1071      2.0746      2.0338      1.9846      1.9274      1.8634    
  1.7955      1.7273      1.6639      1.6096      1.5683      1.5425      1.7080      1.7148      1.7347      1.7664    
  1.8072      1.8540      1.9036      1.9527      1.9990      2.0407      2.0769      2.1071      2.1311      2.1489    
  2.1606      2.1669      2.1687      2.1673      2.1639      2.1596      2.1552      2.1513      2.1482      2.1462    
  2.1455      2.1462      2.1482      2.1513      2.1552      2.1596      2.1639      2.1673      2.1687      2.1669    
  2.1606      2.1489      2.1311      2.1071      2.0769      2.0407      1.9990      1.9527      1.9036      1.8540    
  1.8072      1.7664      1.7347      1.7148      1.8465      1.8514      1.8657      1.8882      1.9172      1.9503    
  1.9854      2.0204      2.0535      2.0836      2.1100      2.1319      2.1489      2.1609      2.1679      2.1706    
  2.1701      2.1674      2.1636      2.1594      2.1552      2.1514      2.1482      2.1460      2.1453      2.1460    
  2.1482      2.1514      2.1552      2.1594      2.1636      2.1674      2.1701      2.1706      2.1679      2.1609    
  2.1489      2.1319      2.1100      2.0836      2.0535      2.0204      1.9854      1.9503      1.9172      1.8882    
  1.8657      1.8514      1.9481      1.9515      1.9615      1.9773      1.9975      2.0207      2.0454      2.0702    
  2.0938      2.1153      2.1340      2.1493      2.1606      2.1679      2.1713      2.1716      2.1696      2.1664    
  2.1626      2.1586      2.1546      2.1508      2.1476      2.1454      2.1446      2.1454      2.1476      2.1508    
  2.1546      2.1586      2.1626      2.1664      2.1696      2.1716      2.1713      2.1679      2.1606      2.1493    
  2.1340      2.1153      2.0938      2.0702      2.0454      2.0207      1.9975      1.9773      1.9615      1.9515    
  2.0197      2.0221      2.0292      2.0403      2.0545      2.0709      2.0884      2.1058      2.1224      2.1374    
  2.1501      2.1601      2.1669      2.1706      2.1716      2.1704      2.1678      2.1644      2.1608      2.1570    
  2.1533      2.1497      2.1465      2.1444      2.1436      2.1444      2.1465      2.1497      2.1533      2.1570    
  2.1608      2.1644      2.1678      2.1704      2.1716      2.1706      2.1669      2.1601      2.1501      2.1374    
  2.1224      2.1058      2.0884      2.0709      2.0545      2.0403      2.0292      2.0221      2.0691      2.0708    
  2.0759      2.0838      2.0940      2.1056      2.1178      2.1299      2.1412      2.1511      2.1592      2.1651    
  2.1687      2.1701      2.1696      2.1678      2.1650      2.1618      2.1583      2.1548      2.1513      2.1479    
  2.1451      2.1432      2.1425      2.1432      2.1451      2.1479      2.1513      2.1548      2.1583      2.1618    
  2.1650      2.1678      2.1696      2.1701      2.1687      2.1651      2.1592      2.1511      2.1412      2.1299    
  2.1178      2.1056      2.0940      2.0838      2.0759      2.0708      2.1021      2.1033      2.1070      2.1127    
  2.1198      2.1279      2.1362      2.1443      2.1516      2.1577      2.1625      2.1656      2.1673      2.1674    
  2.1664      2.1644      2.1618      2.1587      2.1555      2.1521      2.1488      2.1459      2.1434      2.1418    
  2.1413      2.1418      2.1434      2.1459      2.1488      2.1521      2.1555      2.1587      2.1618      2.1644    
  2.1664      2.1674      2.1673      2.1656      2.1625      2.1577      2.1516      2.1443      2.1362      2.1279    
  2.1198      2.1127      2.1070      2.1033      2.1224      2.1233      2.1259      2.1299      2.1348      2.1401    
  2.1456      2.1506      2.1551      2.1588      2.1615      2.1632      2.1639      2.1636      2.1626      2.1608    
  2.1583      2.1555      2.1523      2.1491      2.1462      2.1436      2.1417      2.1405      2.1401      2.1405    
  2.1417      2.1436      2.1462      2.1491      2.1523      2.1555      2.1583      2.1608      2.1626      2.1636    
  2.1639      2.1632      2.1615      2.1588      2.1551      2.1506      2.1456      2.1401      2.1348      2.1299    
  2.1259      2.1233      2.1330      2.1336      2.1354      2.1381      2.1414      2.1448      2.1482      2.1513    
  2.1540      2.1563      2.1580      2.1591      2.1596      2.1594      2.1586      2.1570      2.1548      2.1521    
  2.1491      2.1462      2.1435      2.1414      2.1399      2.1391      2.1388      2.1391      2.1399      2.1414    
  2.1435      2.1462      2.1491      2.1521      2.1548      2.1570      2.1586      2.1594      2.1596      2.1591    
  2.1580      2.1563      2.1540      2.1513      2.1482      2.1448      2.1414      2.1381      2.1354      2.1336    
  2.1368      2.1372      2.1385      2.1403      2.1425      2.1448      2.1469      2.1489      2.1507      2.1523    
  2.1536      2.1546      2.1552      2.1552      2.1546      2.1533      2.1513      2.1488      2.1462      2.1435    
  2.1413      2.1395      2.1383      2.1376      2.1374      2.1376      2.1383      2.1395      2.1413      2.1435    
  2.1462      2.1488      2.1513      2.1533      2.1546      2.1552      2.1552      2.1546      2.1536      2.1523    
  2.1507      2.1489      2.1469      2.1448      2.1425      2.1403      2.1385      2.1372      2.1367      2.1371    
  2.1380      2.1395      2.1411      2.1427      2.1442      2.1457      2.1471      2.1484      2.1497      2.1507    
  2.1513      2.1514      2.1508      2.1497      2.1479      2.1459      2.1436      2.1414      2.1395      2.1380    
  2.1369      2.1362      2.1360      2.1362      2.1369      2.1380      2.1395      2.1414      2.1436      2.1459    
  2.1479      2.1497      2.1508      2.1514      2.1513      2.1507      2.1497      2.1484      2.1471      2.1457    
  2.1442      2.1427      2.1411      2.1395      2.1380      2.1371      2.1353      2.1356      2.1365      2.1378    
  2.1392      2.1405      2.1419      2.1431      2.1444      2.1456      2.1468      2.1477      2.1482      2.1482    
  2.1476      2.1465      2.1451      2.1434      2.1417      2.1399      2.1383      2.1369      2.1358      2.1350    
  2.1348      2.1350      2.1358      2.1369      2.1383      2.1399      2.1417      2.1434      2.1451      2.1465    
  2.1476      2.1482      2.1482      2.1477      2.1468      2.1456      2.1444      2.1431      2.1419      2.1405    
  2.1392      2.1378      2.1365      2.1356      2.1341      2.1344      2.1352      2.1365      2.1379      2.1392    
  2.1405      2.1417      2.1429      2.1441      2.1451      2.1459      2.1462      2.1460      2.1454      2.1444    
  2.1432      2.1418      2.1405      2.1391      2.1376      2.1362      2.1350      2.1342      2.1339      2.1342    
  2.1350      2.1362      2.1376      2.1391      2.1405      2.1418      2.1432      2.1444      2.1454      2.1460    
  2.1462      2.1459      2.1451      2.1441      2.1429      2.1417      2.1405      2.1392      2.1379      2.1365    
  2.1352      2.1344      2.1336      2.1339      2.1348      2.1360      2.1374      2.1388      2.1401      2.1413    
  2.1425      2.1436      2.1446      2.1453      2.1455      2.1453      2.1446      2.1436      2.1425      2.1413    
  2.1401      2.1388      2.1374      2.1360      2.1348      2.1339      2.1336      2.1339      2.1348      2.1360    
  2.1374      2.1388      2.1401      2.1413      2.1425      2.1436      2.1446      2.1453      2.1455      2.1453    
  2.1446      2.1436      2.1425      2.1413      2.1401      2.1388      2.1374      2.1360      2.1348      2.1339    
  2.1341      2.1344      2.1352      2.1365      2.1379      2.1392      2.1405      2.1417      2.1429      2.1441    
  2.1451      2.1459      2.1462      2.1460      2.1454      2.1444      2.1432      2.1418      2.1405      2.1391    
  2.1376      2.1362      2.1350      2.1342      2.1339      2.1342      2.1350      2.1362      2.1376      2.1391    
  2.1405      2.1418      2.1432      2.1444      2.1454      2.1460      2.1462      2.1459      2.1451      2.1441    
  2.1429      2.1417      2.1405      2.1392      2.1379      2.1365      2.1352      2.1344      2.1353      2.1356    
  2.1365      2.1378      2.1392      2.1405      2.1419      2.1431      2.1444      2.1456      2.1468      2.1477    
  2.1482      2.1482      2.1476      2.1465      2.1451      2.1434      2.1417      2.1399      2.1383      2.1369    
  2.1358      2.1350      2.1348      2.1350      2.1358      2.1369      2.1383      2.1399      2.1417      2.1434    
  2.1451      2.1465      2.1476      2.1482      2.1482      2.1477      2.1468      2.1456      2.1444      2.1431    
  2.1419      2.1405      2.1392      2.1378      2.1365      2.1356      2.1367      2.1371      2.1380      2.1395    
  2.1411      2.1427      2.1442      2.1457      2.1471      2.1484      2.1497      2.1507      2.1513      2.1514    
  2.1508      2.1497      2.1479      2.1459      2.1436      2.1414      2.1395      2.1380      2.1369      2.1362    
  2.1360      2.1362      2.1369      2.1380      2.1395      2.1414      2.1436      2.1459      2.1479      2.1497    
  2.1508      2.1514      2.1513      2.1507      2.1497      2.1484      2.1471      2.1457      2.1442      2.1427    
  2.1411      2.1395      2.1380      2.1371      2.1368      2.1372      2.1385      2.1403      2.1425      2.1448    
  2.1469      2.1489      2.1507      2.1523      2.1536      2.1546      2.1552      2.1552      2.1546      2.1533    
  2.1513      2.1488      2.1462      2.1435      2.1413      2.1395      2.1383      2.1376      2.1374      2.1376    
  2.1383      2.1395      2.1413      2.1435      2.1462      2.1488      2.1513      2.1533      2.1546      2.1552    
  2.1552      2.1546      2.1536      2.1523      2.1507      2.1489      2.1469      2.1448      2.1425      2.1403    
  2.1385      2.1372      2.1330      2.1336      2.1354      2.1381      2.1414      2.1448      2.1482      2.1513    
  2.1540      2.1563      2.1580      2.1591      2.1596      2.1594      2.1586      2.1570      2.1548      2.1521    
  2.1491      2.1462      2.1435      2.1414      2.1399      2.1391      2.1388      2.1391      2.1399      2.1414    
  2.1435      2.1462      2.1491      2.1521      2.1548      2.1570      2.1586      2.1594      2.1596      2.1591    
  2.1580      2.1563      2.1540      2.1513      2.1482      2.1448      2.1414      2.1381      2.1354      2.1336    
  2.1224      2.1233      2.1259      2.1299      2.1348      2.1401      2.1456      2.1506      2.1551      2.1588    
  2.1615      2.1632      2.1639      2.1636      2.1626      2.1608      2.1583      2.1555      2.1523      2.1491    
  2.1462      2.1436      2.1417      2.1405      2.1401      2.1405      2.1417      2.1436      2.1462      2.1491    
  2.1523      2.1555      2.1583      2.1608      2.1626      2.1636      2.1639      2.1632      2.1615      2.1588    
  2.1551      2.1506      2.1456      2.1401      2.1348      2.1299      2.1259      2.1233      2.1021      2.1033    
  2.1070      2.1127      2.1198      2.1279      2.1362      2.1443      2.1516      2.1577      2.1625      2.1656    
  2.1673      2.1674      2.1664      2.1644      2.1618      2.1587      2.1555      2.1521      2.1488      2.1459    
  2.1434      2.1418      2.1413      2.1418      2.1434      2.1459      2.1488      2.1521      2.1555      2.1587    
  2.1618      2.1644      2.1664      2.1674      2.1673      2.1656      2.1625      2.1577      2.1516      2.1443    
  2.1362      2.1279      2.1198      2.1127      2.1070      2.1033      2.0691      2.0708      2.0759      2.0838    
  2.0940      2.1056      2.1178      2.1299      2.1412      2.1511      2.1592      2.1651      2.1687      2.1701    
  2.1696      2.1678      2.1650      2.1618      2.1583      2.1548      2.1513      2.1479      2.1451      2.1432    
  2.1425      2.1432      2.1451      2.1479      2.1513      2.1548      2.1583      2.1618      2.1650      2.1678    
  2.1696      2.1701      2.1687      2.1651      2.1592      2.1511      2.1412      2.1299      2.1178      2.1056    
  2.0940      2.0838      2.0759      2.0708      2.0197      2.0221      2.0292      2.0403      2.0545      2.0709    
  2.0884      2.1058      2.1224      2.1374      2.1501      2.1601      2.1669      2.1706      2.1716      2.1704    
  2.1678      2.1644      2.1608      2.1570      2.1533      2.1497      2.1465      2.1444      2.1436      2.1444    
  2.1465      2.1497      2.1533      2.1570      2.1608      2.1644      2.1678      2.1704      2.1716      2.1706    
  2.1669      2.1601      2.1501      2.1374      2.1224      2.1058      2.0884      2.0709      2.0545      2.0403    
  2.0292      2.0221      1.9481      1.9515      1.9615      1.9773      1.9975      2.0207      2.0454      2.0702    
  2.0938      2.1153      2.1340      2.1493      2.1606      2.1679      2.1713      2.1716      2.1696      2.1664    
  2.1626      2.1586      2.1546      2.1508      2.1476      2.1454      2.1446      2.1454      2.1476      2.1508    
  2.1546      2.1586      2.1626      2.1664      2.1696      2.1716      2.1713      2.1679      2.1606      2.1493    
  2.1340      2.1153      2.0938      2.0702      2.0454      2.0207      1.9975      1.9773      1.9615      1.9515    
  1.8465      1.8514      1.8657      1.8882      1.9172      1.9503      1.9854      2.0204      2.0535      2.0836    
  2.1100      2.1319      2.1489      2.1609      2.1679      2.1706      2.1701      2.1674      2.1636      2.1594    
  2.1552      2.1514      2.1482      2.1460      2.1453      2.1460      2.1482      2.1514      2.1552      2.1594    
  2.1636      2.1674      2.1701      2.1706      2.1679      2.1609      2.1489      2.1319      2.1100      2.0836    
  2.0535      2.0204      1.9854      1.9503      1.9172      1.8882      1.8657      1.8514      1.7080      1.7148    
  1.7347      1.7664      1.8072      1.8540      1.9036      1.9527      1.9990      2.0407      2.0769      2.1071    
  2.1311      2.1489      2.1606      2.1669      2.1687      2.1673      2.1639      2.1596      2.1552      2.1513    
  2.1482      2.1462      2.1455      2.1462      2.1482      2.1513      2.1552      2.1596      2.1639      2.1673    
  2.1687      2.1669      2.1606      2.1489      2.1311      2.1071      2.0769      2.0407      1.9990      1.9527    
  1.9036      1.8540      1.8072      1.7664      1.7347      1.7148      1.5338      1.5425      1.5683      1.6096    
  1.6639      1.7273      1.7955      1.8634      1.9274      1.9846      2.0338      2.0746      2.1071      2.1319    
  2.1493      2.1601      2.1651      2.1656      2.1632      2.1591      2.1546      2.1507      2.1477      2.1459    
  2.1453      2.1459      2.1477      2.1507      2.1546      2.1591      2.1632      2.1656      2.1651      2.1601    
  2.1493      2.1319      2.1071      2.0746      2.0338      1.9846      1.9274      1.8634      1.7955      1.7273    
  1.6639      1.6096      1.5683      1.5425      1.3371      1.3473      1.3776      1.4269      1.4931      1.5726    
  1.6603      1.7503      1.8362      1.9135      1.9795      2.0338      2.0769      2.1100      2.1340      2.1501    
  2.1592      2.1625      2.1615      2.1580      2.1536      2.1497      2.1468      2.1451      2.1446      2.1451    
  2.1468      2.1497      2.1536      2.1580      2.1615      2.1625      2.1592      2.1501      2.1340      2.1100    
  2.0769      2.0338      1.9795      1.9135      1.8362      1.7503      1.6603      1.5726      1.4931      1.4269    
  1.3776      1.3473      1.1398      1.1505      1.1824      1.2357      1.3092      1.4005      1.5050      1.6159    
  1.7257      1.8266      1.9135      1.9846      2.0407      2.0836      2.1153      2.1374      2.1511      2.1577    
  2.1588      2.1563      2.1523      2.1484      2.1456      2.1441      2.1436      2.1441      2.1456      2.1484    
  2.1523      2.1563      2.1588      2.1577      2.1511      2.1374      2.1153      2.0836      2.0407      1.9846    
  1.9135      1.8266      1.7257      1.6159      1.5050      1.4005      1.3092      1.2357      1.1824      1.1505    
 0.96686     0.97659      1.0063      1.0575      1.1312      1.2270      1.3418      1.4692      1.6005      1.7257    
  1.8362      1.9274      1.9990      2.0535      2.0938      2.1224      2.1412      2.1516      2.1551      2.1540    
  2.1507      2.1471      2.1444      2.1429      2.1425      2.1429      2.1444      2.1471      2.1507      2.1540    
  2.1551      2.1516      2.1412      2.1224      2.0938      2.0535      1.9990      1.9274      1.8362      1.7257    
  1.6005      1.4692      1.3418      1.2270      1.1312      1.0575      1.0063     0.97659     0.83845     0.84589    
 0.86941     0.91212     0.97780      1.0690      1.1853      1.3218      1.4692      1.6159      1.7503      1.8634    
  1.9527      2.0204      2.0702      2.1058      2.1299      2.1443      2.1506      2.1513      2.1489      2.1457    
  2.1431      2.1417      2.1413      2.1417      2.1431      2.1457      2.1489      2.1513      2.1506      2.1443    
  2.1299      2.1058      2.0702      2.0204      1.9527      1.8634      1.7503      1.6159      1.4692      1.3218    
  1.1853      1.0690     0.97780     0.91212     0.86941     0.84589     0.76432     0.76842     0.78252     0.81154    
 0.86207     0.94013      1.0487      1.1853      1.3418      1.5050      1.6603      1.7955      1.9036      1.9854    
  2.0454      2.0884      2.1178      2.1362      2.1456      2.1482      2.1469      2.1442      2.1419      2.1405    
  2.1401      2.1405      2.1419      2.1442      2.1469      2.1482      2.1456      2.1362      2.1178      2.0884    
  2.0454      1.9854      1.9036      1.7955      1.6603      1.5050      1.3418      1.1853      1.0487     0.94013    
 0.86207     0.81154     0.78252     0.76842     0.74214     0.74232     0.74523     0.75742     0.78812     0.84680    
 0.94013      1.0690      1.2270      1.4005      1.5726      1.7273      1.8540      1.9503      2.0207      2.0709    
  2.1056      2.1279      2.1401      2.1448      2.1448      2.1427      2.1405      2.1392      2.1388      2.1392    
  2.1405      2.1427      2.1448      2.1448      2.1401      2.1279      2.1056      2.0709      2.0207      1.9503    
  1.8540      1.7273      1.5726      1.4005      1.2270      1.0690     0.94013     0.84680     0.78812     0.75742    
 0.74523     0.74232     0.76000     0.75620     0.74763     0.74227     0.75160     0.78812     0.86207     0.97780    
  1.1312      1.3092      1.4931      1.6639      1.8072      1.9172      1.9975      2.0545      2.0940      2.1198    
  2.1348      2.1414      2.1425      2.1411      2.1392      2.1379      2.1374      2.1379      2.1392      2.1411    
  2.1425      2.1414      2.1348      2.1198      2.0940      2.0545      1.9975      1.9172      1.8072      1.6639    
  1.4931      1.3092      1.1312     0.97780     0.86207     0.78812     0.75160     0.74227     0.74763     0.75620    
 0.80079     0.79338     0.77438     0.75291     0.74227     0.75742     0.81154     0.91212      1.0575      1.2357    
  1.4269      1.6096      1.7664      1.8882      1.9773      2.0403      2.0838      2.1127      2.1299      2.1381    
  2.1403      2.1395      2.1378      2.1365      2.1360      2.1365      2.1378      2.1395      2.1403      2.1381    
  2.1299      2.1127      2.0838      2.0403      1.9773      1.8882      1.7664      1.6096      1.4269      1.2357    
  1.0575     0.91212     0.81154     0.75742     0.74227     0.75291     0.77438     0.79338     0.84639     0.83609    
 0.80875     0.77438     0.74763     0.74523     0.78252     0.86941      1.0063      1.1824      1.3776      1.5683    
  1.7347      1.8657      1.9615      2.0292      2.0759      2.1070      2.1259      2.1354      2.1385      2.1380    
  2.1365      2.1352      2.1348      2.1352      2.1365      2.1380      2.1385      2.1354      2.1259      2.1070    
  2.0759      2.0292      1.9615      1.8657      1.7347      1.5683      1.3776      1.1824      1.0063     0.86941    
 0.78252     0.74523     0.74763     0.77438     0.80875     0.83609     0.88100     0.86883     0.83609     0.79338    
 0.75620     0.74232     0.76842     0.84589     0.97659      1.1505      1.3473      1.5425      1.7148      1.8514    
  1.9515      2.0221      2.0708      2.1033      2.1233      2.1336      2.1372      2.1371      2.1356      2.1344    
  2.1339      2.1344      2.1356      2.1371      2.1372      2.1336      2.1233      2.1033      2.0708      2.0221    
  1.9515      1.8514      1.7148      1.5425      1.3473      1.1505     0.97659     0.84589     0.76842     0.74232    
 0.75620     0.79338     0.83609     0.86883     0.88100     0.86883     0.83609     0.79338     0.75620     0.74232    
 0.76842     0.84589     0.97659      1.1505      1.3473      1.5425      1.7148      1.8514      1.9515      2.0221    
  2.0708      2.1033      2.1233      2.1336      2.1372      2.1371      2.1356      2.1344      2.1339      2.1344    
  2.1356      2.1371      2.1372      2.1336      2.1233      2.1033      2.0708      2.0221      1.9515      1.8514    
  1.7148      1.5425      1.3473      1.1505     0.97659     0.84589     0.76842     0.74232     0.75620     0.79338    
 0.83609     0.86883     0.86883     0.85730     0.82639     0.78651     0.75288     0.74290     0.77283     0.85354    
 0.98642      1.1611      1.3575      1.5512      1.7215      1.8562      1.9549      2.0245      2.0725      2.1045    
  2.1242      2.1342      2.1376      2.1374      2.1359      2.1347      2.1342      2.1347      2.1359      2.1374    
  2.1376      2.1342      2.1242      2.1045      2.0725      2.0245      1.9549      1.8562      1.7215      1.5512    
  1.3575      1.1611     0.98642     0.85354     0.77283     0.74290     0.75288     0.78651     0.82639     0.85730    
 0.83609     0.82639     0.80079     0.76909     0.74570     0.74696     0.78781     0.87764      1.0165      1.1931    
  1.3876      1.5768      1.7413      1.8703      1.9647      2.0314      2.0775      2.1081      2.1267      2.1359    
  2.1389      2.1383      2.1367      2.1355      2.1350      2.1355      2.1367      2.1383      2.1389      2.1359    
  2.1267      2.1081      2.0775      2.0314      1.9647      1.8703      1.7413      1.5768      1.3876      1.1931    
  1.0165     0.87764     0.78781     0.74696     0.74570     0.76909     0.80079     0.82639     0.79338     0.78651    