unknown system                          
   1.0000000000000000     
     4.282000    0.000000    0.000000
     0.000000    4.282000    0.000000
     0.000000    0.000000    4.282000
   Na
     2
Direct
  0.000000  0.000000  0.000000
  0.500000  0.500000  0.500000

   48   48   48
 0.89391665889E+00 0.88109277073E+00 0.84647145195E+00 0.80085417117E+00 0.76004245129E+00
 0.74216583812E+00 0.76433554267E+00 0.83845803080E+00 0.96687511071E+00 0.11398501655E+01
 0.13371171866E+01 0.15337770763E+01 0.17079635067E+01 0.18464786371E+01 0.19480535883E+01
 0.20196877825E+01 0.20690851143E+01 0.21020432578E+01 0.21223617225E+01 0.21329490868E+01
 0.21367260256E+01 0.21366684989E+01 0.21352554770E+01 0.21340077991E+01 0.21335481297E+01
 0.21340077991E+01 0.21352554770E+01 0.21366684989E+01 0.21367260256E+01 0.21329490868E+01
 0.21223617225E+01 0.21020432578E+01 0.20690851143E+01 0.20196877825E+01 0.19480535883E+01
 0.18464786371E+01 0.17079635067E+01 0.15337770763E+01 0.13371171866E+01 0.11398501655E+01
 0.96687511071E+00 0.83845803080E+00 0.76433554267E+00 0.74216583812E+00 0.76004245129E+00
 0.80085417117E+00 0.84647145195E+00 0.88109277073E+00 0.88109277073E+00 0.86891862749E+00
 0.83616931774E+00 0.79343935298E+00 0.75623987912E+00 0.74234539370E+00 0.76843226826E+00
 0.84589946899E+00 0.97659993821E+00 0.11504910467E+01 0.13473222799E+01 0.15425364945E+01
 0.17147874563E+01 0.18513866687E+01 0.19514881036E+01 0.20221100675E+01 0.20708285223E+01
 0.21033080348E+01 0.21232663560E+01 0.21335837553E+01 0.21371785218E+01 0.21370219616E+01
 0.21355733505E+01 0.21343230140E+01 0.21338661188E+01 0.21343230140E+01 0.21355733505E+01
 0.21370219616E+01 0.21371785218E+01 0.21335837553E+01 0.21232663560E+01 0.21033080348E+01
 0.20708285223E+01 0.20221100675E+01 0.19514881036E+01 0.18513866687E+01 0.17147874563E+01
 0.15425364945E+01 0.13473222799E+01 0.11504910467E+01 0.97659993821E+00 0.84589946899E+00
 0.76843226826E+00 0.74234539370E+00 0.75623987912E+00 0.79343935298E+00 0.83616931774E+00
 0.86891862749E+00 0.84647145195E+00 0.83616931774E+00 0.80882039404E+00 0.77443256716E+00
 0.74767092432E+00 0.74524757319E+00 0.78253041988E+00 0.86941609695E+00 0.10063523582E+01
 0.11824660694E+01 0.13776273814E+01 0.15683298195E+01 0.17347551514E+01 0.18657005792E+01
 0.19615003459E+01 0.20291687852E+01 0.20758985061E+01 0.21069684582E+01 0.21258641545E+01
 0.21353872070E+01 0.21384489204E+01 0.21380042700E+01 0.21364522578E+01 0.21351935113E+01
 0.21347442039E+01 0.21351935113E+01 0.21364522578E+01 0.21380042700E+01 0.21384489204E+01
 0.21353872070E+01 0.21258641545E+01 0.21069684582E+01 0.20758985061E+01 0.20291687852E+01
 0.19615003459E+01 0.18657005792E+01 0.17347551514E+01 0.15683298195E+01 0.13776273814E+01
 0.11824660694E+01 0.10063523582E+01 0.86941609695E+00 0.78253041988E+00 0.74524757319E+00
 0.74767092432E+00 0.77443256716E+00 0.80882039404E+00 0.83616931774E+00 0.80085417117E+00
 0.79343935298E+00 0.77443256716E+00 0.75294763128E+00 0.74229882690E+00 0.75743542481E+00
 0.81155117661E+00 0.91213089772E+00 0.10574972186E+01 0.12356757716E+01 0.14269607266E+01
 0.16096537905E+01 0.17663627596E+01 0.18882367988E+01 0.19772576673E+01 0.20402732668E+01
 0.20838441174E+01 0.21126524300E+01 0.21298383559E+01 0.21380914146E+01 0.21403106596E+01
 0.21394159614E+01 0.21377027135E+01 0.21364286764E+01 0.21359897274E+01 0.21364286764E+01
 0.21377027135E+01 0.21394159614E+01 0.21403106596E+01 0.21380914146E+01 0.21298383559E+01
 0.21126524300E+01 0.20838441174E+01 0.20402732668E+01 0.19772576673E+01 0.18882367988E+01
 0.17663627596E+01 0.16096537905E+01 0.14269607266E+01 0.12356757716E+01 0.10574972186E+01
 0.91213089772E+00 0.81155117661E+00 0.75743542481E+00 0.74229882690E+00 0.75294763128E+00
 0.77443256716E+00 0.79343935298E+00 0.76004245129E+00 0.75623987912E+00 0.74767092432E+00
 0.74229882690E+00 0.75161759222E+00 0.78813433070E+00 0.86207698207E+00 0.97781700362E+00
 0.11311804040E+01 0.13092018996E+01 0.14931505969E+01 0.16638986730E+01 0.18071633759E+01
 0.19171828715E+01 0.19975052038E+01 0.20545428101E+01 0.20940018346E+01 0.21198252103E+01
 0.21347505673E+01 0.21413440184E+01 0.21424826687E+01 0.21410209244E+01 0.21391048873E+01
 0.21378074063E+01 0.21373786929E+01 0.21378074063E+01 0.21391048873E+01 0.21410209244E+01
 0.21424826687E+01 0.21413440184E+01 0.21347505673E+01 0.21198252103E+01 0.20940018346E+01
 0.20545428101E+01 0.19975052038E+01 0.19171828715E+01 0.18071633759E+01 0.16638986730E+01
 0.14931505969E+01 0.13092018996E+01 0.11311804040E+01 0.97781700362E+00 0.86207698207E+00
 0.78813433070E+00 0.75161759222E+00 0.74229882690E+00 0.74767092432E+00 0.75623987912E+00
 0.74216583812E+00 0.74234539370E+00 0.74524757319E+00 0.75743542481E+00 0.78813433070E+00
 0.84680976089E+00 0.94014052016E+00 0.10690567371E+01 0.12269929558E+01 0.14005195347E+01
 0.15726130211E+01 0.17273590192E+01 0.18540107627E+01 0.19503380972E+01 0.20207451747E+01
 0.20709339912E+01 0.21055946854E+01 0.21278796323E+01 0.21401310003E+01 0.21447995363E+01
 0.21447195321E+01 0.21426345878E+01 0.21404960293E+01 0.21391662753E+01 0.21387445335E+01
 0.21391662753E+01 0.21404960293E+01 0.21426345878E+01 0.21447195321E+01 0.21447995363E+01
 0.21401310003E+01 0.21278796323E+01 0.21055946854E+01 0.20709339912E+01 0.20207451747E+01
 0.19503380972E+01 0.18540107627E+01 0.17273590192E+01 0.15726130211E+01 0.14005195347E+01
 0.12269929558E+01 0.10690567371E+01 0.94014052016E+00 0.84680976089E+00 0.78813433070E+00
 0.75743542481E+00 0.74524757319E+00 0.74234539370E+00 0.76433554267E+00 0.76843226826E+00
 0.78253041988E+00 0.81155117661E+00 0.86207698207E+00 0.94014052016E+00 0.10486694855E+01
 0.11853372044E+01 0.13417953379E+01 0.15049873401E+01 0.16603289217E+01 0.17954767214E+01
 0.19035657278E+01 0.19854192133E+01 0.20454396258E+01 0.20883700000E+01 0.21178229935E+01
 0.21362111830E+01 0.21455463240E+01 0.21481800593E+01 0.21468642216E+01 0.21441706311E+01
 0.21418147895E+01 0.21404440253E+01 0.21400230332E+01 0.21404440253E+01 0.21418147895E+01
 0.21441706311E+01 0.21468642216E+01 0.21481800593E+01 0.21455463240E+01 0.21362111830E+01
 0.21178229935E+01 0.20883700000E+01 0.20454396258E+01 0.19854192133E+01 0.19035657278E+01
 0.17954767214E+01 0.16603289217E+01 0.15049873401E+01 0.13417953379E+01 0.11853372044E+01
 0.10486694855E+01 0.94014052016E+00 0.86207698207E+00 0.81155117661E+00 0.78253041988E+00
 0.76843226826E+00 0.83845803080E+00 0.84589946899E+00 0.86941609695E+00 0.91213089772E+00
 0.97781700362E+00 0.10690567371E+01 0.11853372044E+01 0.13217886735E+01 0.14692572591E+01
 0.16159682532E+01 0.17502737204E+01 0.18634470851E+01 0.19527299260E+01 0.20203586365E+01
 0.20701839815E+01 0.21058402175E+01 0.21299285501E+01 0.21442652512E+01 0.21506327200E+01
 0.21512913156E+01 0.21488473923E+01 0.21456285614E+01 0.21430834220E+01 0.21416624609E+01
 0.21412331618E+01 0.21416624609E+01 0.21430834220E+01 0.21456285614E+01 0.21488473923E+01
 0.21512913156E+01 0.21506327200E+01 0.21442652512E+01 0.21299285501E+01 0.21058402175E+01
 0.20701839815E+01 0.20203586365E+01 0.19527299260E+01 0.18634470851E+01 0.17502737204E+01
 0.16159682532E+01 0.14692572591E+01 0.13217886735E+01 0.11853372044E+01 0.10690567371E+01
 0.97781700362E+00 0.91213089772E+00 0.86941609695E+00 0.84589946899E+00 0.96687511071E+00
 0.97659993821E+00 0.10063523582E+01 0.10574972186E+01 0.11311804040E+01 0.12269929558E+01
 0.13417953379E+01 0.14692572591E+01 0.16004889578E+01 0.17256933093E+01 0.18362620715E+01
 0.19273769578E+01 0.19990219182E+01 0.20535038707E+01 0.20938026396E+01 0.21224514431E+01
 0.21412305722E+01 0.21515625933E+01 0.21551038125E+01 0.21540066310E+01 0.21506482579E+01
 0.21470386389E+01 0.21443448776E+01 0.21428609530E+01 0.21424111129E+01 0.21428609530E+01
 0.21443448776E+01 0.21470386389E+01 0.21506482579E+01 0.21540066310E+01 0.21551038125E+01
 0.21515625933E+01 0.21412305722E+01 0.21224514431E+01 0.20938026396E+01 0.20535038707E+01
 0.19990219182E+01 0.19273769578E+01 0.18362620715E+01 0.17256933093E+01 0.16004889578E+01
 0.14692572591E+01 0.13417953379E+01 0.12269929558E+01 0.11311804040E+01 0.10574972186E+01
 0.10063523582E+01 0.97659993821E+00 0.11398501655E+01 0.11504910467E+01 0.11824660694E+01
 0.12356757716E+01 0.13092018996E+01 0.14005195347E+01 0.15049873401E+01 0.16159682532E+01
 0.17256933093E+01 0.18266344384E+01 0.19134891859E+01 0.19846393103E+01 0.20407536454E+01
 0.20836593837E+01 0.21153514113E+01 0.21374358674E+01 0.21511453011E+01 0.21577170117E+01
 0.21587508147E+01 0.21562422084E+01 0.21522475379E+01 0.21484004973E+01 0.21455950489E+01
 0.21440270654E+01 0.21435408234E+01 0.21440270654E+01 0.21455950489E+01 0.21484004973E+01
 0.21522475379E+01 0.21562422084E+01 0.21587508147E+01 0.21577170117E+01 0.21511453011E+01
 0.21374358674E+01 0.21153514113E+01 0.20836593837E+01 0.20407536454E+01 0.19846393103E+01
 0.19134891859E+01 0.18266344384E+01 0.17256933093E+01 0.16159682532E+01 0.15049873401E+01
 0.14005195347E+01 0.13092018996E+01 0.12356757716E+01 0.11824660694E+01 0.11504910467E+01
 0.13371171866E+01 0.13473222799E+01 0.13776273814E+01 0.14269607266E+01 0.14931505969E+01
 0.15726130211E+01 0.16603289217E+01 0.17502737204E+01 0.18362620715E+01 0.19134891859E+01
 0.19795572829E+01 0.20338511259E+01 0.20769595505E+01 0.21099910053E+01 0.21340631881E+01
 0.21501454156E+01 0.21592062072E+01 0.21624542197E+01 0.21614440105E+01 0.21579393066E+01
 0.21535969761E+01 0.21496481622E+01 0.21467488133E+01 0.21450653495E+01 0.21445240974E+01
 0.21450653495E+01 0.21467488133E+01 0.21496481622E+01 0.21535969761E+01 0.21579393066E+01
 0.21614440105E+01 0.21624542197E+01 0.21592062072E+01 0.21501454156E+01 0.21340631881E+01
 0.21099910053E+01 0.20769595505E+01 0.20338511259E+01 0.19795572829E+01 0.19134891859E+01
 0.18362620715E+01 0.17502737204E+01 0.16603289217E+01 0.15726130211E+01 0.14931505969E+01
 0.14269607266E+01 0.13776273814E+01 0.13473222799E+01 0.15337770763E+01 0.15425364945E+01
 0.15683298195E+01 0.16096537905E+01 0.16638986730E+01 0.17273590192E+01 0.17954767214E+01
 0.18634470851E+01 0.19273769578E+01 0.19846393103E+01 0.20338511259E+01 0.20746273801E+01
 0.21071655835E+01 0.21318906254E+01 0.21493096348E+01 0.21600711177E+01 0.21650965778E+01
 0.21656302370E+01 0.21631320485E+01 0.21590542173E+01 0.21546124969E+01 0.21506539152E+01
 0.21476558299E+01 0.21458218767E+01 0.21452083040E+01 0.21458218767E+01 0.21476558299E+01
 0.21506539152E+01 0.21546124969E+01 0.21590542173E+01 0.21631320485E+01 0.21656302370E+01
 0.21650965778E+01 0.21600711177E+01 0.21493096348E+01 0.21318906254E+01 0.21071655835E+01
 0.20746273801E+01 0.20338511259E+01 0.19846393103E+01 0.19273769578E+01 0.18634470851E+01
 0.17954767214E+01 0.17273590192E+01 0.16638986730E+01 0.16096537905E+01 0.15683298195E+01
 0.15425364945E+01 0.17079635067E+01 0.17147874563E+01 0.17347551514E+01 0.17663627596E+01
 0.18071633759E+01 0.18540107627E+01 0.19035657278E+01 0.19527299260E+01 0.19990219182E+01
 0.20407536454E+01 0.20769595505E+01 0.21071655835E+01 0.21311623603E+01 0.21489168617E+01
 0.21606399844E+01 0.21669072044E+01 0.21686920954E+01 0.21672404575E+01 0.21638312779E+01
 0.21595500671E+01 0.21551846412E+01 0.21512621293E+01 0.21481537016E+01 0.21461490337E+01
 0.21454549275E+01 0.21461490337E+01 0.21481537016E+01 0.21512621293E+01 0.21551846412E+01
 0.21595500671E+01 0.21638312779E+01 0.21672404575E+01 0.21686920954E+01 0.21669072044E+01
 0.21606399844E+01 0.21489168617E+01 0.21311623603E+01 0.21071655835E+01 0.20769595505E+01
 0.20407536454E+01 0.19990219182E+01 0.19527299260E+01 0.19035657278E+01 0.18540107627E+01
 0.18071633759E+01 0.17663627596E+01 0.17347551514E+01 0.17147874563E+01 0.18464786371E+01
 0.18513866687E+01 0.18657005792E+01 0.18882367988E+01 0.19171828715E+01 0.19503380972E+01
 0.19854192133E+01 0.20203586365E+01 0.20535038707E+01 0.20836593837E+01 0.21099910053E+01
 0.21318906254E+01 0.21489168617E+01 0.21608628848E+01 0.21678954498E+01 0.21706380047E+01
 0.21700937235E+01 0.21674106327E+01 0.21636044540E+01 0.21593898206E+01 0.21551982941E+01
 0.21513339361E+01 0.21481283905E+01 0.21459726949E+01 0.21452083040E+01 0.21459726949E+01
 0.21481283905E+01 0.21513339361E+01 0.21551982941E+01 0.21593898206E+01 0.21636044540E+01
 0.21674106327E+01 0.21700937236E+01 0.21706380047E+01 0.21678954498E+01 0.21608628848E+01
 0.21489168617E+01 0.21318906254E+01 0.21099910053E+01 0.20836593837E+01 0.20535038707E+01
 0.20203586365E+01 0.19854192133E+01 0.19503380972E+01 0.19171828715E+01 0.18882367988E+01
 0.18657005792E+01 0.18513866687E+01 0.19480535883E+01 0.19514881036E+01 0.19615003459E+01
 0.19772576673E+01 0.19975052038E+01 0.20207451747E+01 0.20454396258E+01 0.20701839815E+01
 0.20938026396E+01 0.21153514113E+01 0.21340631881E+01 0.21493096348E+01 0.21606399844E+01
 0.21678954498E+01 0.21713234874E+01 0.21715880353E+01 0.21696215482E+01 0.21663666286E+01
 0.21625384931E+01 0.21585389144E+01 0.21545593196E+01 0.21507859913E+01 0.21475523981E+01
 0.21453240844E+01 0.21445240974E+01 0.21453240844E+01 0.21475523981E+01 0.21507859913E+01
 0.21545593196E+01 0.21585389144E+01 0.21625384931E+01 0.21663666286E+01 0.21696215482E+01
 0.21715880353E+01 0.21713234874E+01 0.21678954498E+01 0.21606399844E+01 0.21493096348E+01
 0.21340631881E+01 0.21153514113E+01 0.20938026396E+01 0.20701839815E+01 0.20454396258E+01
 0.20207451747E+01 0.19975052038E+01 0.19772576673E+01 0.19615003459E+01 0.19514881036E+01
 0.20196877825E+01 0.20221100675E+01 0.20291687852E+01 0.20402732668E+01 0.20545428101E+01
 0.20709339912E+01 0.20883700000E+01 0.21058402175E+01 0.21224514431E+01 0.21374358674E+01
 0.21501454156E+01 0.21600711177E+01 0.21669072044E+01 0.21706380047E+01 0.21715880353E+01
 0.21703744984E+01 0.21677489917E+01 0.21643873967E+01 0.21607339219E+01 0.21569864621E+01
 0.21532281492E+01 0.21496148069E+01 0.21464867435E+01 0.21443201061E+01 0.21435408234E+01
 0.21443201061E+01 0.21464867435E+01 0.21496148069E+01 0.21532281492E+01 0.21569864621E+01
 0.21607339219E+01 0.21643873967E+01 0.21677489917E+01 0.21703744984E+01 0.21715880353E+01
 0.21706380047E+01 0.21669072044E+01 0.21600711177E+01 0.21501454156E+01 0.21374358674E+01
 0.21224514431E+01 0.21058402175E+01 0.20883700000E+01 0.20709339912E+01 0.20545428101E+01
 0.20402732668E+01 0.20291687852E+01 0.20221100675E+01 0.20690851143E+01 0.20708285223E+01
 0.20758985061E+01 0.20838441174E+01 0.20940018346E+01 0.21055946854E+01 0.21178229935E+01
 0.21299285501E+01 0.21412305722E+01 0.21511453011E+01 0.21592062072E+01 0.21650965778E+01
 0.21686920954E+01 0.21700937235E+01 0.21696215482E+01 0.21677489917E+01 0.21649857177E+01
 0.21617527989E+01 0.21583108268E+01 0.21547819047E+01 0.21512543088E+01 0.21479044168E+01
 0.21450525605E+01 0.21431056948E+01 0.21424111129E+01 0.21431056948E+01 0.21450525605E+01
 0.21479044168E+01 0.21512543088E+01 0.21547819047E+01 0.21583108268E+01 0.21617527989E+01
 0.21649857177E+01 0.21677489917E+01 0.21696215482E+01 0.21700937236E+01 0.21686920954E+01
 0.21650965778E+01 0.21592062072E+01 0.21511453011E+01 0.21412305722E+01 0.21299285501E+01
 0.21178229935E+01 0.21055946854E+01 0.20940018346E+01 0.20838441174E+01 0.20758985061E+01
 0.20708285223E+01 0.21020432578E+01 0.21033080348E+01 0.21069684582E+01 0.21126524300E+01
 0.21198252103E+01 0.21278796323E+01 0.21362111830E+01 0.21442652512E+01 0.21515625933E+01
 0.21577170117E+01 0.21624542197E+01 0.21656302370E+01 0.21672404575E+01 0.21674106327E+01
 0.21663666286E+01 0.21643873967E+01 0.21617527989E+01 0.21587027843E+01 0.21554236853E+01
 0.21520678943E+01 0.21487962926E+01 0.21458170425E+01 0.21433913877E+01 0.21417927774E+01
 0.21412331618E+01 0.21417927774E+01 0.21433913877E+01 0.21458170425E+01 0.21487962926E+01
 0.21520678943E+01 0.21554236853E+01 0.21587027843E+01 0.21617527989E+01 0.21643873967E+01
 0.21663666286E+01 0.21674106327E+01 0.21672404575E+01 0.21656302370E+01 0.21624542197E+01
 0.21577170117E+01 0.21515625933E+01 0.21442652512E+01 0.21362111830E+01 0.21278796323E+01
 0.21198252103E+01 0.21126524300E+01 0.21069684582E+01 0.21033080348E+01 0.21223617225E+01
 0.21232663560E+01 0.21258641545E+01 0.21298383559E+01 0.21347505673E+01 0.21401310003E+01
 0.21455463240E+01 0.21506327200E+01 0.21551038125E+01 0.21587508147E+01 0.21614440105E+01
 0.21631320485E+01 0.21638312779E+01 0.21636044540E+01 0.21625384931E+01 0.21607339219E+01
 0.21583108268E+01 0.21554236853E+01 0.21522703806E+01 0.21490842282E+01 0.21461089449E+01
 0.21435669568E+01 0.21416344446E+01 0.21404310729E+01 0.21400230332E+01 0.21404310729E+01
 0.21416344446E+01 0.21435669568E+01 0.21461089449E+01 0.21490842282E+01 0.21522703806E+01
 0.21554236853E+01 0.21583108268E+01 0.21607339219E+01 0.21625384931E+01 0.21636044540E+01
 0.21638312779E+01 0.21631320485E+01 0.21614440105E+01 0.21587508147E+01 0.21551038125E+01
 0.21506327200E+01 0.21455463240E+01 0.21401310003E+01 0.21347505673E+01 0.21298383559E+01
 0.21258641545E+01 0.21232663560E+01 0.21329490868E+01 0.21335837553E+01 0.21353872070E+01
 0.21380914146E+01 0.21413440184E+01 0.21447995363E+01 0.21481800593E+01 0.21512913156E+01
 0.21540066310E+01 0.21562422084E+01 0.21579393066E+01 0.21590542173E+01 0.21595500671E+01
 0.21593898206E+01 0.21585389144E+01 0.21569864621E+01 0.21547819047E+01 0.21520678943E+01
 0.21490842282E+01 0.21461296017E+01 0.21434921912E+01 0.21413809135E+01 0.21398919071E+01
 0.21390261055E+01 0.21387445335E+01 0.21390261055E+01 0.21398919071E+01 0.21413809135E+01
 0.21434921912E+01 0.21461296017E+01 0.21490842282E+01 0.21520678943E+01 0.21547819047E+01
 0.21569864621E+01 0.21585389144E+01 0.21593898206E+01 0.21595500671E+01 0.21590542173E+01
 0.21579393066E+01 0.21562422084E+01 0.21540066310E+01 0.21512913156E+01 0.21481800593E+01
 0.21447995363E+01 0.21413440184E+01 0.21380914146E+01 0.21353872070E+01 0.21335837553E+01
 0.21367260256E+01 0.21371785218E+01 0.21384489204E+01 0.21403106596E+01 0.21424826687E+01
 0.21447195321E+01 0.21468642216E+01 0.21488473923E+01 0.21506482579E+01 0.21522475379E+01
 0.21535969761E+01 0.21546124969E+01 0.21551846412E+01 0.21551982941E+01 0.21545593196E+01
 0.21532281492E+01 0.21512543088E+01 0.21487962926E+01 0.21461089449E+01 0.21434921912E+01
 0.21412161226E+01 0.21394546310E+01 0.21382599758E+01 0.21375910182E+01 0.21373786929E+01
 0.21375910182E+01 0.21382599758E+01 0.21394546310E+01 0.21412161226E+01 0.21434921912E+01
 0.21461089449E+01 0.21487962926E+01 0.21512543088E+01 0.21532281492E+01 0.21545593196E+01
 0.21551982941E+01 0.21551846412E+01 0.21546124969E+01 0.21535969761E+01 0.21522475379E+01
 0.21506482579E+01 0.21488473923E+01 0.21468642216E+01 0.21447195321E+01 0.21424826687E+01
 0.21403106596E+01 0.21384489204E+01 0.21371785218E+01 0.21366684989E+01 0.21370219616E+01
 0.21380042700E+01 0.21394159614E+01 0.21410209244E+01 0.21426345878E+01 0.21441706311E+01
 0.21456285614E+01 0.21470386389E+01 0.21484004973E+01 0.21496481622E+01 0.21506539152E+01
 0.21512621293E+01 0.21513339361E+01 0.21507859913E+01 0.21496148069E+01 0.21479044168E+01
 0.21458170425E+01 0.21435669568E+01 0.21413809135E+01 0.21394546310E+01 0.21379197087E+01
 0.21368338421E+01 0.21361978145E+01 0.21359897274E+01 0.21361978145E+01 0.21368338421E+01
 0.21379197087E+01 0.21394546310E+01 0.21413809135E+01 0.21435669568E+01 0.21458170425E+01
 0.21479044168E+01 0.21496148069E+01 0.21507859913E+01 0.21513339361E+01 0.21512621293E+01
 0.21506539152E+01 0.21496481622E+01 0.21484004973E+01 0.21470386389E+01 0.21456285614E+01
 0.21441706311E+01 0.21426345878E+01 0.21410209244E+01 0.21394159614E+01 0.21380042700E+01
 0.21370219616E+01 0.21352554770E+01 0.21355733505E+01 0.21364522578E+01 0.21377027135E+01
 0.21391048873E+01 0.21404960293E+01 0.21418147895E+01 0.21430834220E+01 0.21443448776E+01
 0.21455950489E+01 0.21467488133E+01 0.21476558299E+01 0.21481537016E+01 0.21481283905E+01
 0.21475523981E+01 0.21464867435E+01 0.21450525605E+01 0.21433913877E+01 0.21416344446E+01
 0.21398919071E+01 0.21382599758E+01 0.21368338421E+01 0.21357131398E+01 0.21349930215E+01
 0.21347442039E+01 0.21349930215E+01 0.21357131398E+01 0.21368338421E+01 0.21382599758E+01
 0.21398919071E+01 0.21416344446E+01 0.21433913877E+01 0.21450525605E+01 0.21464867435E+01
 0.21475523981E+01 0.21481283905E+01 0.21481537016E+01 0.21476558299E+01 0.21467488133E+01
 0.21455950489E+01 0.21443448776E+01 0.21430834220E+01 0.21418147895E+01 0.21404960293E+01
 0.21391048873E+01 0.21377027135E+01 0.21364522578E+01 0.21355733505E+01 0.21340077991E+01
 0.21343230140E+01 0.21351935113E+01 0.21364286764E+01 0.21378074063E+01 0.21391662753E+01
 0.21404440253E+01 0.21416624609E+01 0.21428609530E+01 0.21440270654E+01 0.21450653495E+01
 0.21458218767E+01 0.21461490337E+01 0.21459726949E+01 0.21453240844E+01 0.21443201061E+01
 0.21431056948E+01 0.21417927774E+01 0.21404310729E+01 0.21390261055E+01 0.21375910182E+01
 0.21361978145E+01 0.21349930215E+01 0.21341632625E+01 0.21338661188E+01 0.21341632625E+01
 0.21349930215E+01 0.21361978145E+01 0.21375910182E+01 0.21390261055E+01 0.21404310729E+01
 0.21417927774E+01 0.21431056948E+01 0.21443201061E+01 0.21453240844E+01 0.21459726949E+01
 0.21461490337E+01 0.21458218767E+01 0.21450653495E+01 0.21440270654E+01 0.21428609530E+01
 0.21416624609E+01 0.21404440253E+01 0.21391662753E+01 0.21378074063E+01 0.21364286764E+01
 0.21351935113E+01 0.21343230140E+01 0.21335481297E+01 0.21338661188E+01 0.21347442039E+01
 0.21359897274E+01 0.21373786929E+01 0.21387445335E+01 0.21400230332E+01 0.21412331618E+01
 0.21424111129E+01 0.21435408234E+01 0.21445240974E+01 0.21452083040E+01 0.21454549275E+01
 0.21452083040E+01 0.21445240974E+01 0.21435408234E+01 0.21424111129E+01 0.21412331618E+01
 0.21400230332E+01 0.21387445335E+01 0.21373786929E+01 0.21359897274E+01 0.21347442039E+01
 0.21338661188E+01 0.21335481297E+01 0.21338661188E+01 0.21347442039E+01 0.21359897274E+01
 0.21373786929E+01 0.21387445335E+01 0.21400230332E+01 0.21412331618E+01 0.21424111129E+01
 0.21435408234E+01 0.21445240974E+01 0.21452083040E+01 0.21454549275E+01 0.21452083040E+01
 0.21445240974E+01 0.21435408234E+01 0.21424111129E+01 0.21412331618E+01 0.21400230332E+01
 0.21387445335E+01 0.21373786929E+01 0.21359897274E+01 0.21347442039E+01 0.21338661188E+01
 0.21340077991E+01 0.21343230140E+01 0.21351935113E+01 0.21364286764E+01 0.21378074063E+01
 0.21391662753E+01 0.21404440253E+01 0.21416624609E+01 0.21428609530E+01 0.21440270654E+01
 0.21450653495E+01 0.21458218767E+01 0.21461490337E+01 0.21459726949E+01 0.21453240844E+01
 0.21443201061E+01 0.21431056948E+01 0.21417927774E+01 0.21404310729E+01 0.21390261055E+01
 0.21375910182E+01 0.21361978145E+01 0.21349930215E+01 0.21341632625E+01 0.21338661188E+01
 0.21341632625E+01 0.21349930215E+01 0.21361978145E+01 0.21375910182E+01 0.21390261055E+01
 0.21404310729E+01 0.21417927774E+01 0.21431056948E+01 0.21443201061E+01 0.21453240844E+01
 0.21459726949E+01 0.21461490337E+01 0.21458218767E+01 0.21450653495E+01 0.21440270654E+01
 0.21428609530E+01 0.21416624609E+01 0.21404440253E+01 0.21391662753E+01 0.21378074063E+01
 0.21364286764E+01 0.21351935113E+01 0.21343230140E+01 0.21352554770E+01 0.21355733505E+01
 0.21364522578E+01 0.21377027135E+01 0.21391048873E+01 0.21404960293E+01 0.21418147895E+01
 0.21430834220E+01 0.21443448776E+01 0.21455950489E+01 0.21467488133E+01 0.21476558299E+01
 0.21481537016E+01 0.21481283905E+01 0.21475523981E+01 0.21464867435E+01 0.21450525605E+01
 0.21433913877E+01 0.21416344446E+01 0.21398919071E+01 0.21382599758E+01 0.21368338421E+01
 0.21357131398E+01 0.21349930215E+01 0.21347442039E+01 0.21349930215E+01 0.21357131398E+01
 0.21368338421E+01 0.21382599758E+01 0.21398919071E+01 0.21416344446E+01 0.21433913877E+01
 0.21450525605E+01 0.21464867435E+01 0.21475523981E+01 0.21481283905E+01 0.21481537016E+01
 0.21476558299E+01 0.21467488133E+01 0.21455950489E+01 0.21443448776E+01 0.21430834220E+01
 0.21418147895E+01 0.21404960293E+01 0.21391048873E+01 0.21377027135E+01 0.21364522578E+01
 0.21355733505E+01 0.21366684989E+01 0.21370219616E+01 0.21380042700E+01 0.21394159614E+01
 0.21410209244E+01 0.21426345878E+01 0.21441706311E+01 0.21456285614E+01 0.21470386389E+01
 0.21484004973E+01 0.21496481622E+01 0.21506539152E+01 0.21512621293E+01 0.21513339361E+01
 0.21507859913E+01 0.21496148069E+01 0.21479044168E+01 0.21458170425E+01 0.21435669568E+01
 0.21413809135E+01 0.21394546310E+01 0.21379197087E+01 0.21368338421E+01 0.21361978145E+01
 0.21359897274E+01 0.21361978145E+01 0.21368338421E+01 0.21379197087E+01 0.21394546310E+01
 0.21413809135E+01 0.21435669568E+01 0.21458170425E+01 0.21479044168E+01 0.21496148069E+01
 0.21507859913E+01 0.21513339361E+01 0.21512621293E+01 0.21506539152E+01 0.21496481622E+01
 0.21484004973E+01 0.21470386389E+01 0.21456285614E+01 0.21441706311E+01 0.21426345878E+01
 0.21410209244E+01 0.21394159614E+01 0.21380042700E+01 0.21370219616E+01 0.21367260256E+01
 0.21371785218E+01 0.21384489204E+01 0.21403106596E+01 0.21424826687E+01 0.21447195321E+01
 0.21468642216E+01 0.21488473923E+01 0.21506482579E+01 0.21522475379E+01 0.21535969761E+01
 0.21546124969E+01 0.21551846412E+01 0.21551982941E+01 0.21545593196E+01 0.21532281492E+01
 0.21512543088E+01 0.21487962926E+01 0.21461089449E+01 0.21434921912E+01 0.21412161226E+01
 0.21394546310E+01 0.21382599758E+01 0.21375910182E+01 0.21373786929E+01 0.21375910182E+01
 0.21382599758E+01 0.21394546310E+01 0.21412161226E+01 0.21434921912E+01 0.21461089449E+01
 0.21487962926E+01 0.21512543088E+01 0.21532281492E+01 0.21545593196E+01 0.21551982941E+01
 0.21551846412E+01 0.21546124969E+01 0.21535969761E+01 0.21522475379E+01 0.21506482579E+01
 0.21488473923E+01 0.21468642216E+01 0.21447195321E+01 0.21424826687E+01 0.21403106596E+01
 0.21384489204E+01 0.21371785218E+01 0.21329490868E+01 0.21335837553E+01 0.21353872070E+01
 0.21380914146E+01 0.21413440184E+01 0.21447995363E+01 0.21481800593E+01 0.21512913156E+01
 0.21540066310E+01 0.21562422084E+01 0.21579393066E+01 0.21590542173E+01 0.21595500671E+01
 0.21593898206E+01 0.21585389144E+01 0.21569864621E+01 0.21547819047E+01 0.21520678943E+01
 0.21490842282E+01 0.21461296017E+01 0.21434921912E+01 0.21413809135E+01 0.21398919071E+01
 0.21390261055E+01 0.21387445335E+01 0.21390261055E+01 0.21398919071E+01 0.21413809135E+01
 0.21434921912E+01 0.21461296017E+01 0.21490842282E+01 0.21520678943E+01 0.21547819047E+01
 0.21569864621E+01 0.21585389144E+01 0.21593898206E+01 0.21595500671E+01 0.21590542173E+01
 0.21579393066E+01 0.21562422084E+01 0.21540066310E+01 0.21512913156E+01 0.21481800593E+01
 0.21447995363E+01 0.21413440184E+01 0.21380914146E+01 0.21353872070E+01 0.21335837553E+01
 0.21223617225E+01 0.21232663560E+01 0.21258641545E+01 0.21298383559E+01 0.21347505673E+01
 0.21401310003E+01 0.21455463240E+01 0.21506327200E+01 0.21551038125E+01 0.21587508147E+01
 0.21614440105E+01 0.21631320485E+01 0.21638312779E+01 0.21636044540E+01 0.21625384931E+01
 0.21607339219E+01 0.21583108268E+01 0.21554236853E+01 0.21522703806E+01 0.21490842282E+01
 0.21461089449E+01 0.21435669568E+01 0.21416344446E+01 0.21404310729E+01 0.21400230332E+01
 0.21404310729E+01 0.21416344446E+01 0.21435669568E+01 0.21461089449E+01 0.21490842282E+01
 0.21522703806E+01 0.21554236853E+01 0.21583108268E+01 0.21607339219E+01 0.21625384931E+01
 0.21636044540E+01 0.21638312779E+01 0.21631320485E+01 0.21614440105E+01 0.21587508147E+01
 0.21551038125E+01 0.21506327200E+01 0.21455463240E+01 0.21401310003E+01 0.21347505673E+01
 0.21298383559E+01 0.21258641545E+01 0.21232663560E+01 0.21020432578E+01 0.21033080348E+01
 0.21069684582E+01 0.21126524300E+01 0.21198252103E+01 0.21278796323E+01 0.21362111830E+01
 0.21442652512E+01 0.21515625933E+01 0.21577170117E+01 0.21624542197E+01 0.21656302370E+01
 0.21672404575E+01 0.21674106327E+01 0.21663666286E+01 0.21643873967E+01 0.21617527989E+01
 0.21587027843E+01 0.21554236853E+01 0.21520678943E+01 0.21487962926E+01 0.21458170425E+01
 0.21433913877E+01 0.21417927774E+01 0.21412331618E+01 0.21417927774E+01 0.21433913877E+01
 0.21458170425E+01 0.21487962926E+01 0.21520678943E+01 0.21554236853E+01 0.21587027843E+01
 0.21617527989E+01 0.21643873967E+01 0.21663666286E+01 0.21674106327E+01 0.21672404575E+01
 0.21656302370E+01 0.21624542197E+01 0.21577170117E+01 0.21515625933E+01 0.21442652512E+01
 0.21362111830E+01 0.21278796323E+01 0.21198252103E+01 0.21126524300E+01 0.21069684582E+01
 0.21033080348E+01 0.20690851143E+01 0.20708285223E+01 0.20758985061E+01 0.20838441174E+01
 0.20940018346E+01 0.21055946854E+01 0.21178229935E+01 0.21299285501E+01 0.21412305722E+01
 0.21511453011E+01 0.21592062072E+01 0.21650965778E+01 0.21686920954E+01 0.21700937236E+01
 0.21696215482E+01 0.21677489917E+01 0.21649857177E+01 0.21617527989E+01 0.21583108268E+01
 0.21547819047E+01 0.21512543088E+01 0.21479044168E+01 0.21450525605E+01 0.21431056948E+01
 0.21424111129E+01 0.21431056948E+01 0.21450525605E+01 0.21479044168E+01 0.21512543088E+01
 0.21547819047E+01 0.21583108268E+01 0.21617527989E+01 0.21649857177E+01 0.21677489917E+01
 0.21696215482E+01 0.21700937236E+01 0.21686920954E+01 0.21650965778E+01 0.21592062072E+01
 0.21511453011E+01 0.21412305722E+01 0.21299285501E+01 0.21178229935E+01 0.21055946854E+01
 0.20940018346E+01 0.20838441174E+01 0.20758985061E+01 0.20708285223E+01 0.20196877825E+01
 0.20221100675E+01 0.20291687852E+01 0.20402732668E+01 0.20545428101E+01 0.20709339912E+01
 0.20883700000E+01 0.21058402175E+01 0.21224514431E+01 0.21374358674E+01 0.21501454156E+01
 0.21600711177E+01 0.21669072044E+01 0.21706380047E+01 0.21715880353E+01 0.21703744984E+01
 0.21677489917E+01 0.21643873967E+01 0.21607339219E+01 0.21569864621E+01 0.21532281492E+01
 0.21496148069E+01 0.21464867435E+01 0.21443201061E+01 0.21435408234E+01 0.21443201061E+01
 0.21464867435E+01 0.21496148069E+01 0.21532281492E+01 0.21569864621E+01 0.21607339219E+01
 0.21643873967E+01 0.21677489917E+01 0.21703744984E+01 0.21715880353E+01 0.21706380047E+01
 0.21669072044E+01 0.21600711177E+01 0.21501454156E+01 0.21374358674E+01 0.21224514431E+01
 0.21058402175E+01 0.20883700000E+01 0.20709339912E+01 0.20545428101E+01 0.20402732668E+01