unknown system                          
   1.0000000000000000     
     4.282000    0.000000    0.000000
     0.000000    4.282000    0.000000
     0.000000    0.000000    4.282000
   Na
     2
Direct
  0.000000  0.000000  0.000000
  0.500000  0.500000  0.500000

   48   48   48
 0.89392073851E+00 0.88109686592E+00 0.84647556705E+00 0.80085824173E+00 0.76004633180E+00
 0.74216932545E+00 0.76433842671E+00 0.83846015407E+00 0.96687641766E+00 0.11398507266E+01
 0.13371171883E+01 0.15337767756E+01 0.17079631599E+01 0.18464784258E+01 0.19480535755E+01
 0.20196879150E+01 0.20690852662E+01 0.21020432952E+01 0.21223615567E+01 0.21329486961E+01
 0.21367254446E+01 0.21366677890E+01 0.21352546973E+01 0.21340069904E+01 0.21335473138E+01
 0.21340069904E+01 0.21352546973E+01 0.21366677890E+01 0.21367254446E+01 0.21329486961E+01
 0.21223615567E+01 0.21020432952E+01 0.20690852662E+01 0.20196879150E+01 0.19480535755E+01
 0.18464784258E+01 0.17079631599E+01 0.15337767756E+01 0.13371171883E+01 0.11398507266E+01
 0.96687641766E+00 0.83846015407E+00 0.76433842671E+00 0.74216932545E+00 0.76004633180E+00
 0.80085824173E+00 0.84647556705E+00 0.88109686592E+00 0.88109686592E+00 0.86892273462E+00
 0.83617343459E+00 0.79344341039E+00 0.75624372999E+00 0.74234883703E+00 0.76843509955E+00
 0.84590153850E+00 0.97660119814E+00 0.11504915732E+01 0.13473222616E+01 0.15425361871E+01
 0.17147871120E+01 0.18513864641E+01 0.19514880975E+01 0.20221102043E+01 0.20708286760E+01
 0.21033080722E+01 0.21232661893E+01 0.21335833634E+01 0.21371779394E+01 0.21370212499E+01
 0.21355725683E+01 0.21343222023E+01 0.21338652998E+01 0.21343222023E+01 0.21355725683E+01
 0.21370212499E+01 0.21371779394E+01 0.21335833634E+01 0.21232661893E+01 0.21033080722E+01
 0.20708286760E+01 0.20221102043E+01 0.19514880975E+01 0.18513864641E+01 0.17147871120E+01
 0.15425361871E+01 0.13473222616E+01 0.11504915732E+01 0.97660119814E+00 0.84590153850E+00
 0.76843509955E+00 0.74234883703E+00 0.75624372999E+00 0.79344341039E+00 0.83617343459E+00
 0.86892273462E+00 0.84647556705E+00 0.83617343459E+00 0.80882449199E+00 0.77443656457E+00
 0.74767467073E+00 0.74525087495E+00 0.78253308928E+00 0.86941800636E+00 0.10063534814E+01
 0.11824664977E+01 0.13776273091E+01 0.15683294973E+01 0.17347548187E+01 0.18657003972E+01
 0.19615003611E+01 0.20291689354E+01 0.20758986644E+01 0.21069684940E+01 0.21258639836E+01
 0.21353868106E+01 0.21384483337E+01 0.21380035534E+01 0.21364514697E+01 0.21351926924E+01
 0.21347433770E+01 0.21351926924E+01 0.21364514697E+01 0.21380035534E+01 0.21384483337E+01
 0.21353868106E+01 0.21258639836E+01 0.21069684940E+01 0.20758986644E+01 0.20291689354E+01
 0.19615003611E+01 0.18657003972E+01 0.17347548187E+01 0.15683294973E+01 0.13776273091E+01
 0.11824664977E+01 0.10063534814E+01 0.86941800636E+00 0.78253308928E+00 0.74525087495E+00
 0.74767467073E+00 0.77443656457E+00 0.80882449199E+00 0.83617343459E+00 0.80085824173E+00
 0.79344341039E+00 0.77443656457E+00 0.75295147093E+00 0.74230235695E+00 0.75743846619E+00
 0.81155356897E+00 0.91213254671E+00 0.10574981286E+01 0.12356760546E+01 0.14269605819E+01
 0.16096534584E+01 0.17663624575E+01 0.18882366620E+01 0.19772577218E+01 0.20402734393E+01
 0.20838442802E+01 0.21126524586E+01 0.21298381735E+01 0.21380910076E+01 0.21403100647E+01
 0.21394152382E+01 0.21377019186E+01 0.21364278497E+01 0.21359888924E+01 0.21364278497E+01
 0.21377019186E+01 0.21394152382E+01 0.21403100647E+01 0.21380910076E+01 0.21298381735E+01
 0.21126524586E+01 0.20838442802E+01 0.20402734393E+01 0.19772577218E+01 0.18882366620E+01
 0.17663624575E+01 0.16096534584E+01 0.14269605819E+01 0.12356760546E+01 0.10574981286E+01
 0.91213254671E+00 0.81155356897E+00 0.75743846619E+00 0.74230235695E+00 0.75295147093E+00
 0.77443656457E+00 0.79344341039E+00 0.76004633180E+00 0.75624372999E+00 0.74767467073E+00
 0.74230235695E+00 0.75162075878E+00 0.78813697780E+00 0.86207898526E+00 0.97781830820E+00
 0.11311810481E+01 0.13092020148E+01 0.14931503834E+01 0.16638983527E+01 0.18071631341E+01
 0.19171828083E+01 0.19975053173E+01 0.20545430127E+01 0.20940019990E+01 0.21198252222E+01
 0.21347503625E+01 0.21413435923E+01 0.21424820613E+01 0.21410201938E+01 0.21391040870E+01
 0.21378065740E+01 0.21373778519E+01 0.21378065740E+01 0.21391040870E+01 0.21410201938E+01
 0.21424820613E+01 0.21413435923E+01 0.21347503625E+01 0.21198252222E+01 0.20940019990E+01
 0.20545430127E+01 0.19975053173E+01 0.19171828083E+01 0.18071631341E+01 0.16638983527E+01
 0.14931503834E+01 0.13092020148E+01 0.11311810481E+01 0.97781830820E+00 0.86207898526E+00
 0.78813697780E+00 0.75162075878E+00 0.74230235695E+00 0.74767467073E+00 0.75624372999E+00
 0.74216932545E+00 0.74234883703E+00 0.74525087495E+00 0.75743846619E+00 0.78813697780E+00
 0.84681188868E+00 0.94014204487E+00 0.10690576443E+01 0.12269933143E+01 0.14005194895E+01
 0.15726127650E+01 0.17273587463E+01 0.18540106168E+01 0.19503381361E+01 0.20207453638E+01
 0.20709342277E+01 0.21055948451E+01 0.21278796159E+01 0.21401307614E+01 0.21447990831E+01
 0.21447189086E+01 0.21426338496E+01 0.21404952246E+01 0.21391654386E+01 0.21387436875E+01
 0.21391654386E+01 0.21404952246E+01 0.21426338496E+01 0.21447189086E+01 0.21447990831E+01
 0.21401307614E+01 0.21278796159E+01 0.21055948451E+01 0.20709342277E+01 0.20207453638E+01
 0.19503381361E+01 0.18540106168E+01 0.17273587463E+01 0.15726127650E+01 0.14005194895E+01
 0.12269933143E+01 0.10690576443E+01 0.94014204487E+00 0.84681188868E+00 0.78813697780E+00
 0.75743846619E+00 0.74525087495E+00 0.74234883703E+00 0.76433842671E+00 0.76843509955E+00
 0.78253308928E+00 0.81155356897E+00 0.86207898526E+00 0.94014204487E+00 0.10486704886E+01
 0.11853377073E+01 0.13417954317E+01 0.15049871729E+01 0.16603286682E+01 0.17954765380E+01
 0.19035657102E+01 0.19854193736E+01 0.20454398967E+01 0.20883702662E+01 0.21178231383E+01
 0.21362111269E+01 0.21455460422E+01 0.21481795739E+01 0.21468635803E+01 0.21441698846E+01
 0.21418139794E+01 0.21404431817E+01 0.21400221792E+01 0.21404431817E+01 0.21418139794E+01
 0.21441698846E+01 0.21468635803E+01 0.21481795739E+01 0.21455460422E+01 0.21362111269E+01
 0.21178231383E+01 0.20883702662E+01 0.20454398967E+01 0.19854193736E+01 0.19035657102E+01
 0.17954765380E+01 0.16603286682E+01 0.15049871729E+01 0.13417954317E+01 0.11853377073E+01
 0.10486704886E+01 0.94014204487E+00 0.86207898526E+00 0.81155356897E+00 0.78253308928E+00
 0.76843509955E+00 0.83846015407E+00 0.84590153850E+00 0.86941800636E+00 0.91213254671E+00
 0.97781830820E+00 0.10690576443E+01 0.11853377073E+01 0.13217888203E+01 0.14692571513E+01
 0.16159680295E+01 0.17502735253E+01 0.18634470293E+01 0.19527300552E+01 0.20203589191E+01
 0.20701843231E+01 0.21058404975E+01 0.21299286652E+01 0.21442651454E+01 0.21506323905E+01
 0.21512907973E+01 0.21488467337E+01 0.21456278060E+01 0.21430826030E+01 0.21416616046E+01
 0.21412322930E+01 0.21416616046E+01 0.21430826030E+01 0.21456278060E+01 0.21488467337E+01
 0.21512907973E+01 0.21506323905E+01 0.21442651454E+01 0.21299286652E+01 0.21058404975E+01
 0.20701843231E+01 0.20203589191E+01 0.19527300552E+01 0.18634470293E+01 0.17502735253E+01
 0.16159680295E+01 0.14692571513E+01 0.13217888203E+01 0.11853377073E+01 0.10690576443E+01
 0.97781830820E+00 0.91213254671E+00 0.86941800636E+00 0.84590153850E+00 0.96687641766E+00
 0.97660119814E+00 0.10063534814E+01 0.10574981286E+01 0.11311810481E+01 0.12269933143E+01
 0.13417954317E+01 0.14692571513E+01 0.16004887470E+01 0.17256931110E+01 0.18362619895E+01
 0.19273770538E+01 0.19990221907E+01 0.20535042529E+01 0.20938030211E+01 0.21224517082E+01
 0.21412306376E+01 0.21515624281E+01 0.21551034336E+01 0.21540060818E+01 0.21506475837E+01
 0.21470378737E+01 0.21443440457E+01 0.21428600777E+01 0.21424102221E+01 0.21428600777E+01
 0.21443440457E+01 0.21470378737E+01 0.21506475837E+01 0.21540060818E+01 0.21551034336E+01
 0.21515624281E+01 0.21412306376E+01 0.21224517082E+01 0.20938030211E+01 0.20535042529E+01
 0.19990221907E+01 0.19273770538E+01 0.18362619895E+01 0.17256931110E+01 0.16004887470E+01
 0.14692571513E+01 0.13417954317E+01 0.12269933143E+01 0.11311810481E+01 0.10574981286E+01
 0.10063534814E+01 0.97660119814E+00 0.11398507266E+01 0.11504915732E+01 0.11824664977E+01
 0.12356760546E+01 0.13092020148E+01 0.14005194895E+01 0.15049871729E+01 0.16159680295E+01
 0.17256931110E+01 0.18266343462E+01 0.19134892576E+01 0.19846395600E+01 0.20407540327E+01
 0.20836598199E+01 0.21153517850E+01 0.21374360795E+01 0.21511452935E+01 0.21577167773E+01
 0.21587503853E+01 0.21562416296E+01 0.21522468482E+01 0.21483997203E+01 0.21455942008E+01
 0.21440261674E+01 0.21435399070E+01 0.21440261674E+01 0.21455942008E+01 0.21483997203E+01
 0.21522468482E+01 0.21562416296E+01 0.21587503853E+01 0.21577167773E+01 0.21511452935E+01
 0.21374360795E+01 0.21153517850E+01 0.20836598199E+01 0.20407540327E+01 0.19846395600E+01
 0.19134892576E+01 0.18266343462E+01 0.17256931110E+01 0.16159680295E+01 0.15049871729E+01
 0.14005194895E+01 0.13092020148E+01 0.12356760546E+01 0.11824664977E+01 0.11504915732E+01
 0.13371171883E+01 0.13473222616E+01 0.13776273091E+01 0.14269605819E+01 0.14931503834E+01
 0.15726127650E+01 0.16603286682E+01 0.17502735253E+01 0.18362619895E+01 0.19134892576E+01
 0.19795575205E+01 0.20338515031E+01 0.20769600011E+01 0.21099914351E+01 0.21340634998E+01
 0.21501455357E+01 0.21592061049E+01 0.21624539075E+01 0.21614435279E+01 0.21579386964E+01
 0.21535962675E+01 0.21496473697E+01 0.21467479473E+01 0.21450644297E+01 0.21445231575E+01
 0.21450644297E+01 0.21467479473E+01 0.21496473697E+01 0.21535962675E+01 0.21579386964E+01
 0.21614435279E+01 0.21624539075E+01 0.21592061049E+01 0.21501455357E+01 0.21340634998E+01
 0.21099914351E+01 0.20769600011E+01 0.20338515031E+01 0.19795575205E+01 0.19134892576E+01
 0.18362619895E+01 0.17502735253E+01 0.16603286682E+01 0.15726127650E+01 0.14931503834E+01
 0.14269605819E+01 0.13776273091E+01 0.13473222616E+01 0.15337767756E+01 0.15425361871E+01
 0.15683294973E+01 0.16096534584E+01 0.16638983527E+01 0.17273587463E+01 0.17954765380E+01
 0.18634470293E+01 0.19273770538E+01 0.19846395600E+01 0.20338515031E+01 0.20746278303E+01
 0.21071660305E+01 0.21318909854E+01 0.21493098356E+01 0.21600711160E+01 0.21650963675E+01
 0.21656298430E+01 0.21631315104E+01 0.21590535709E+01 0.21546117631E+01 0.21506531024E+01
 0.21476549458E+01 0.21458209402E+01 0.21452073478E+01 0.21458209402E+01 0.21476549458E+01
 0.21506531024E+01 0.21546117631E+01 0.21590535709E+01 0.21631315104E+01 0.21656298430E+01
 0.21650963675E+01 0.21600711160E+01 0.21493098356E+01 0.21318909854E+01 0.21071660305E+01
 0.20746278303E+01 0.20338515031E+01 0.19846395600E+01 0.19273770538E+01 0.18634470293E+01
 0.17954765380E+01 0.17273587463E+01 0.16638983527E+01 0.16096534584E+01 0.15683294973E+01
 0.15425361871E+01 0.17079631599E+01 0.17147871120E+01 0.17347548187E+01 0.17663624575E+01
 0.18071631341E+01 0.18540106168E+01 0.19035657102E+01 0.19527300552E+01 0.19990221907E+01
 0.20407540327E+01 0.20769600011E+01 0.21071660305E+01 0.21311627329E+01 0.21489170978E+01
 0.21606400422E+01 0.21669070687E+01 0.21686917774E+01 0.21672399858E+01 0.21638306857E+01
 0.21595493810E+01 0.21551838760E+01 0.21512612923E+01 0.21481528016E+01 0.21461480884E+01
 0.21454539656E+01 0.21461480884E+01 0.21481528016E+01 0.21512612923E+01 0.21551838760E+01
 0.21595493810E+01 0.21638306857E+01 0.21672399858E+01 0.21686917774E+01 0.21669070687E+01
 0.21606400422E+01 0.21489170978E+01 0.21311627329E+01 0.21071660305E+01 0.20769600011E+01
 0.20407540327E+01 0.19990221907E+01 0.19527300552E+01 0.19035657102E+01 0.18540106168E+01
 0.18071631341E+01 0.17663624575E+01 0.17347548187E+01 0.17147871120E+01 0.18464784258E+01
 0.18513864641E+01 0.18657003972E+01 0.18882366620E+01 0.19171828083E+01 0.19503381361E+01
 0.19854193736E+01 0.20203589191E+01 0.20535042529E+01 0.20836598199E+01 0.21099914351E+01
 0.21318909854E+01 0.21489170978E+01 0.21608629616E+01 0.21678953535E+01 0.21706377411E+01
 0.21700933115E+01 0.21674100962E+01 0.21636038152E+01 0.21593890965E+01 0.21551974969E+01
 0.21513330759E+01 0.21481274797E+01 0.21459717506E+01 0.21452073478E+01 0.21459717506E+01
 0.21481274797E+01 0.21513330759E+01 0.21551974969E+01 0.21593890965E+01 0.21636038152E+01
 0.21674100962E+01 0.21700933115E+01 0.21706377411E+01 0.21678953535E+01 0.21608629616E+01
 0.21489170978E+01 0.21318909854E+01 0.21099914351E+01 0.20836598199E+01 0.20535042529E+01
 0.20203589191E+01 0.19854193736E+01 0.19503381361E+01 0.19171828083E+01 0.18882366620E+01
 0.18657003972E+01 0.18513864641E+01 0.19480535755E+01 0.19514880975E+01 0.19615003611E+01
 0.19772577218E+01 0.19975053173E+01 0.20207453638E+01 0.20454398967E+01 0.20701843231E+01
 0.20938030211E+01 0.21153517850E+01 0.21340634998E+01 0.21493098356E+01 0.21606400422E+01
 0.21678953535E+01 0.21713232441E+01 0.21715876618E+01 0.21696210625E+01 0.21663660444E+01
 0.21625378198E+01 0.21585381607E+01 0.21545584970E+01 0.21507851150E+01 0.21475514851E+01
 0.21453231510E+01 0.21445231575E+01 0.21453231510E+01 0.21475514851E+01 0.21507851150E+01
 0.21545584970E+01 0.21585381607E+01 0.21625378198E+01 0.21663660444E+01 0.21696210625E+01
 0.21715876618E+01 0.21713232441E+01 0.21678953535E+01 0.21606400422E+01 0.21493098356E+01
 0.21340634998E+01 0.21153517850E+01 0.20938030211E+01 0.20701843231E+01 0.20454398967E+01
 0.20207453638E+01 0.19975053173E+01 0.19772577218E+01 0.19615003611E+01 0.19514880975E+01
 0.20196879150E+01 0.20221102043E+01 0.20291689354E+01 0.20402734393E+01 0.20545430127E+01
 0.20709342277E+01 0.20883702662E+01 0.21058404975E+01 0.21224517082E+01 0.21374360795E+01
 0.21501455357E+01 0.21600711160E+01 0.21669070687E+01 0.21706377411E+01 0.21715876618E+01
 0.21703740345E+01 0.21677484493E+01 0.21643867784E+01 0.21607332256E+01 0.21569856901E+01
 0.21532273128E+01 0.21496139256E+01 0.21464858381E+01 0.21443191916E+01 0.21435399070E+01
 0.21443191916E+01 0.21464858381E+01 0.21496139256E+01 0.21532273128E+01 0.21569856901E+01
 0.21607332256E+01 0.21643867784E+01 0.21677484493E+01 0.21703740345E+01 0.21715876618E+01
 0.21706377411E+01 0.21669070687E+01 0.21600711160E+01 0.21501455357E+01 0.21374360795E+01
 0.21224517082E+01 0.21058404975E+01 0.20883702662E+01 0.20709342277E+01 0.20545430127E+01
 0.20402734393E+01 0.20291689354E+01 0.20221102043E+01 0.20690852662E+01 0.20708286760E+01
 0.20758986644E+01 0.20838442802E+01 0.20940019990E+01 0.21055948451E+01 0.21178231383E+01
 0.21299286652E+01 0.21412306376E+01 0.21511452935E+01 0.21592061049E+01 0.21650963675E+01
 0.21686917774E+01 0.21700933115E+01 0.21696210625E+01 0.21677484493E+01 0.21649851245E+01
 0.21617521496E+01 0.21583101123E+01 0.21547811227E+01 0.21512534698E+01 0.21479035414E+01
 0.21450516701E+01 0.21431048029E+01 0.21424102221E+01 0.21431048029E+01 0.21450516701E+01
 0.21479035414E+01 0.21512534698E+01 0.21547811227E+01 0.21583101123E+01 0.21617521496E+01
 0.21649851245E+01 0.21677484493E+01 0.21696210625E+01 0.21700933115E+01 0.21686917774E+01
 0.21650963675E+01 0.21592061049E+01 0.21511452935E+01 0.21412306376E+01 0.21299286652E+01
 0.21178231383E+01 0.21055948451E+01 0.20940019990E+01 0.20838442802E+01 0.20758986644E+01
 0.20708286760E+01 0.21020432952E+01 0.21033080722E+01 0.21069684940E+01 0.21126524586E+01
 0.21198252222E+01 0.21278796159E+01 0.21362111269E+01 0.21442651454E+01 0.21515624281E+01
 0.21577167773E+01 0.21624539075E+01 0.21656298430E+01 0.21672399858E+01 0.21674100962E+01
 0.21663660444E+01 0.21643867784E+01 0.21617521496E+01 0.21587020966E+01 0.21554229486E+01
 0.21520671039E+01 0.21487954564E+01 0.21458161785E+01 0.21433905147E+01 0.21417919063E+01
 0.21412322930E+01 0.21417919063E+01 0.21433905147E+01 0.21458161785E+01 0.21487954564E+01
 0.21520671039E+01 0.21554229486E+01 0.21587020966E+01 0.21617521496E+01 0.21643867784E+01
 0.21663660444E+01 0.21674100962E+01 0.21672399858E+01 0.21656298430E+01 0.21624539075E+01
 0.21577167773E+01 0.21515624281E+01 0.21442651454E+01 0.21362111269E+01 0.21278796159E+01
 0.21198252222E+01 0.21126524586E+01 0.21069684940E+01 0.21033080722E+01 0.21223615567E+01
 0.21232661893E+01 0.21258639836E+01 0.21298381735E+01 0.21347503625E+01 0.21401307614E+01
 0.21455460422E+01 0.21506323905E+01 0.21551034336E+01 0.21587503853E+01 0.21614435279E+01
 0.21631315104E+01 0.21638306857E+01 0.21636038152E+01 0.21625378198E+01 0.21607332256E+01
 0.21583101123E+01 0.21554229486E+01 0.21522696133E+01 0.21490834254E+01 0.21461081106E+01
 0.21435661034E+01 0.21416335859E+01 0.21404302167E+01 0.21400221792E+01 0.21404302167E+01
 0.21416335859E+01 0.21435661034E+01 0.21461081106E+01 0.21490834254E+01 0.21522696133E+01
 0.21554229486E+01 0.21583101123E+01 0.21607332256E+01 0.21625378198E+01 0.21636038152E+01
 0.21638306857E+01 0.21631315104E+01 0.21614435279E+01 0.21587503853E+01 0.21551034336E+01
 0.21506323905E+01 0.21455460422E+01 0.21401307614E+01 0.21347503625E+01 0.21298381735E+01
 0.21258639836E+01 0.21232661893E+01 0.21329486961E+01 0.21335833634E+01 0.21353868106E+01
 0.21380910076E+01 0.21413435923E+01 0.21447990831E+01 0.21481795739E+01 0.21512907973E+01
 0.21540060818E+01 0.21562416296E+01 0.21579386964E+01 0.21590535709E+01 0.21595493810E+01
 0.21593890965E+01 0.21585381607E+01 0.21569856901E+01 0.21547811227E+01 0.21520671039E+01
 0.21490834254E+01 0.21461287818E+01 0.21434913545E+01 0.21413800663E+01 0.21398910573E+01
 0.21390252579E+01 0.21387436875E+01 0.21390252579E+01 0.21398910573E+01 0.21413800663E+01
 0.21434913545E+01 0.21461287818E+01 0.21490834254E+01 0.21520671039E+01 0.21547811227E+01
 0.21569856901E+01 0.21585381607E+01 0.21593890965E+01 0.21595493810E+01 0.21590535709E+01
 0.21579386964E+01 0.21562416296E+01 0.21540060818E+01 0.21512907973E+01 0.21481795739E+01
 0.21447990831E+01 0.21413435923E+01 0.21380910076E+01 0.21353868106E+01 0.21335833634E+01
 0.21367254446E+01 0.21371779394E+01 0.21384483337E+01 0.21403100647E+01 0.21424820613E+01
 0.21447189086E+01 0.21468635803E+01 0.21488467337E+01 0.21506475837E+01 0.21522468482E+01
 0.21535962675E+01 0.21546117631E+01 0.21551838760E+01 0.21551974969E+01 0.21545584970E+01
 0.21532273128E+01 0.21512534698E+01 0.21487954564E+01 0.21461081106E+01 0.21434913545E+01
 0.21412152812E+01 0.21394537862E+01 0.21382591312E+01 0.21375901759E+01 0.21373778519E+01
 0.21375901759E+01 0.21382591312E+01 0.21394537862E+01 0.21412152812E+01 0.21434913545E+01
 0.21461081106E+01 0.21487954564E+01 0.21512534698E+01 0.21532273128E+01 0.21545584970E+01
 0.21551974969E+01 0.21551838760E+01 0.21546117631E+01 0.21535962675E+01 0.21522468482E+01
 0.21506475837E+01 0.21488467337E+01 0.21468635803E+01 0.21447189086E+01 0.21424820613E+01
 0.21403100647E+01 0.21384483337E+01 0.21371779394E+01 0.21366677890E+01 0.21370212499E+01
 0.21380035534E+01 0.21394152382E+01 0.21410201938E+01 0.21426338496E+01 0.21441698846E+01
 0.21456278060E+01 0.21470378737E+01 0.21483997203E+01 0.21496473697E+01 0.21506531024E+01
 0.21512612923E+01 0.21513330759E+01 0.21507851150E+01 0.21496139256E+01 0.21479035414E+01
 0.21458161785E+01 0.21435661034E+01 0.21413800663E+01 0.21394537862E+01 0.21379188656E+01
 0.21368330020E+01 0.21361969779E+01 0.21359888924E+01 0.21361969779E+01 0.21368330020E+01
 0.21379188656E+01 0.21394537862E+01 0.21413800663E+01 0.21435661034E+01 0.21458161785E+01
 0.21479035414E+01 0.21496139256E+01 0.21507851150E+01 0.21513330759E+01 0.21512612923E+01
 0.21506531024E+01 0.21496473697E+01 0.21483997203E+01 0.21470378737E+01 0.21456278060E+01
 0.21441698846E+01 0.21426338496E+01 0.21410201938E+01 0.21394152382E+01 0.21380035534E+01
 0.21370212499E+01 0.21352546973E+01 0.21355725683E+01 0.21364514697E+01 0.21377019186E+01
 0.21391040870E+01 0.21404952246E+01 0.21418139794E+01 0.21430826030E+01 0.21443440457E+01
 0.21455942008E+01 0.21467479473E+01 0.21476549458E+01 0.21481528016E+01 0.21481274797E+01
 0.21475514851E+01 0.21464858381E+01 0.21450516701E+01 0.21433905147E+01 0.21416335859E+01
 0.21398910573E+01 0.21382591312E+01 0.21368330020E+01 0.21357123054E+01 0.21349921924E+01
 0.21347433770E+01 0.21349921924E+01 0.21357123054E+01 0.21368330020E+01 0.21382591312E+01
 0.21398910573E+01 0.21416335859E+01 0.21433905147E+01 0.21450516701E+01 0.21464858381E+01
 0.21475514851E+01 0.21481274797E+01 0.21481528016E+01 0.21476549458E+01 0.21467479473E+01
 0.21455942008E+01 0.21443440457E+01 0.21430826030E+01 0.21418139794E+01 0.21404952246E+01
 0.21391040870E+01 0.21377019186E+01 0.21364514697E+01 0.21355725683E+01 0.21340069904E+01
 0.21343222023E+01 0.21351926924E+01 0.21364278497E+01 0.21378065740E+01 0.21391654386E+01
 0.21404431817E+01 0.21416616046E+01 0.21428600777E+01 0.21440261674E+01 0.21450644297E+01
 0.21458209402E+01 0.21461480884E+01 0.21459717506E+01 0.21453231510E+01 0.21443191916E+01
 0.21431048029E+01 0.21417919063E+01 0.21404302167E+01 0.21390252579E+01 0.21375901759E+01
 0.21361969779E+01 0.21349921924E+01 0.21341624405E+01 0.21338652998E+01 0.21341624405E+01
 0.21349921924E+01 0.21361969779E+01 0.21375901759E+01 0.21390252579E+01 0.21404302167E+01
 0.21417919063E+01 0.21431048029E+01 0.21443191916E+01 0.21453231510E+01 0.21459717506E+01
 0.21461480884E+01 0.21458209402E+01 0.21450644297E+01 0.21440261674E+01 0.21428600777E+01
 0.21416616046E+01 0.21404431817E+01 0.21391654386E+01 0.21378065740E+01 0.21364278497E+01
 0.21351926924E+01 0.21343222023E+01 0.21335473138E+01 0.21338652998E+01 0.21347433770E+01
 0.21359888924E+01 0.21373778519E+01 0.21387436875E+01 0.21400221792E+01 0.21412322930E+01
 0.21424102221E+01 0.21435399070E+01 0.21445231575E+01 0.21452073478E+01 0.21454539656E+01
 0.21452073478E+01 0.21445231575E+01 0.21435399070E+01 0.21424102221E+01 0.21412322930E+01
 0.21400221792E+01 0.21387436875E+01 0.21373778519E+01 0.21359888924E+01 0.21347433770E+01
 0.21338652998E+01 0.21335473138E+01 0.21338652998E+01 0.21347433770E+01 0.21359888924E+01
 0.21373778519E+01 0.21387436875E+01 0.21400221792E+01 0.21412322930E+01 0.21424102221E+01
 0.21435399070E+01 0.21445231575E+01 0.21452073478E+01 0.21454539656E+01 0.21452073478E+01
 0.21445231575E+01 0.21435399070E+01 0.21424102221E+01 0.21412322930E+01 0.21400221792E+01
 0.21387436875E+01 0.21373778519E+01 0.21359888924E+01 0.21347433770E+01 0.21338652998E+01
 0.21340069904E+01 0.21343222023E+01 0.21351926924E+01 0.21364278497E+01 0.21378065740E+01
 0.21391654386E+01 0.21404431817E+01 0.21416616046E+01 0.21428600777E+01 0.21440261674E+01
 0.21450644297E+01 0.21458209402E+01 0.21461480884E+01 0.21459717506E+01 0.21453231510E+01
 0.21443191916E+01 0.21431048029E+01 0.21417919063E+01 0.21404302167E+01 0.21390252579E+01
 0.21375901759E+01 0.21361969779E+01 0.21349921924E+01 0.21341624405E+01 0.21338652998E+01
 0.21341624405E+01 0.21349921924E+01 0.21361969779E+01 0.21375901759E+01 0.21390252579E+01
 0.21404302167E+01 0.21417919063E+01 0.21431048029E+01 0.21443191916E+01 0.21453231510E+01
 0.21459717506E+01 0.21461480884E+01 0.21458209402E+01 0.21450644297E+01 0.21440261674E+01
 0.21428600777E+01 0.21416616046E+01 0.21404431817E+01 0.21391654386E+01 0.21378065740E+01
 0.21364278497E+01 0.21351926924E+01 0.21343222023E+01 0.21352546973E+01 0.21355725683E+01
 0.21364514697E+01 0.21377019186E+01 0.21391040870E+01 0.21404952246E+01 0.21418139794E+01
 0.21430826030E+01 0.21443440457E+01 0.21455942008E+01 0.21467479473E+01 0.21476549458E+01
 0.21481528016E+01 0.21481274797E+01 0.21475514851E+01 0.21464858381E+01 0.21450516701E+01
 0.21433905147E+01 0.21416335859E+01 0.21398910573E+01 0.21382591312E+01 0.21368330020E+01
 0.21357123054E+01 0.21349921924E+01 0.21347433770E+01 0.21349921924E+01 0.21357123054E+01
 0.21368330020E+01 0.21382591312E+01 0.21398910573E+01 0.21416335859E+01 0.21433905147E+01
 0.21450516701E+01 0.21464858381E+01 0.21475514851E+01 0.21481274797E+01 0.21481528016E+01
 0.21476549458E+01 0.21467479473E+01 0.21455942008E+01 0.21443440457E+01 0.21430826030E+01
 0.21418139794E+01 0.21404952246E+01 0.21391040870E+01 0.21377019186E+01 0.21364514697E+01
 0.21355725683E+01 0.21366677890E+01 0.21370212499E+01 0.21380035534E+01 0.21394152382E+01
 0.21410201938E+01 0.21426338496E+01 0.21441698846E+01 0.21456278060E+01 0.21470378737E+01
 0.21483997203E+01 0.21496473697E+01 0.21506531024E+01 0.21512612923E+01 0.21513330759E+01
 0.21507851150E+01 0.21496139256E+01 0.21479035414E+01 0.21458161785E+01 0.21435661034E+01
 0.21413800663E+01 0.21394537862E+01 0.21379188656E+01 0.21368330020E+01 0.21361969779E+01
 0.21359888924E+01 0.21361969779E+01 0.21368330020E+01 0.21379188656E+01 0.21394537862E+01
 0.21413800663E+01 0.21435661034E+01 0.21458161785E+01 0.21479035414E+01 0.21496139256E+01
 0.21507851150E+01 0.21513330759E+01 0.21512612923E+01 0.21506531024E+01 0.21496473697E+01
 0.21483997203E+01 0.21470378737E+01 0.21456278060E+01 0.21441698846E+01 0.21426338496E+01
 0.21410201938E+01 0.21394152382E+01 0.21380035534E+01 0.21370212499E+01 0.21367254446E+01
 0.21371779394E+01 0.21384483337E+01 0.21403100647E+01 0.21424820613E+01 0.21447189086E+01
 0.21468635803E+01 0.21488467337E+01 0.21506475837E+01 0.21522468482E+01 0.21535962675E+01
 0.21546117631E+01 0.21551838760E+01 0.21551974969E+01 0.21545584970E+01 0.21532273128E+01
 0.21512534698E+01 0.21487954564E+01 0.21461081106E+01 0.21434913545E+01 0.21412152812E+01
 0.21394537862E+01 0.21382591312E+01 0.21375901759E+01 0.21373778519E+01 0.21375901759E+01
 0.21382591312E+01 0.21394537862E+01 0.21412152812E+01 0.21434913545E+01 0.21461081106E+01
 0.21487954564E+01 0.21512534698E+01 0.21532273128E+01 0.21545584970E+01 0.21551974969E+01
 0.21551838760E+01 0.21546117631E+01 0.21535962675E+01 0.21522468482E+01 0.21506475837E+01
 0.21488467337E+01 0.21468635803E+01 0.21447189086E+01 0.21424820613E+01 0.21403100647E+01
 0.21384483337E+01 0.21371779394E+01 0.21329486961E+01 0.21335833634E+01 0.21353868106E+01
 0.21380910076E+01 0.21413435923E+01 0.21447990831E+01 0.21481795739E+01 0.21512907973E+01
 0.21540060818E+01 0.21562416296E+01 0.21579386964E+01 0.21590535709E+01 0.21595493810E+01
 0.21593890965E+01 0.21585381607E+01 0.21569856901E+01 0.21547811227E+01 0.21520671039E+01
 0.21490834254E+01 0.21461287818E+01 0.21434913545E+01 0.21413800663E+01 0.21398910573E+01
 0.21390252579E+01 0.21387436875E+01 0.21390252579E+01 0.21398910573E+01 0.21413800663E+01
 0.21434913545E+01 0.21461287818E+01 0.21490834254E+01 0.21520671039E+01 0.21547811227E+01
 0.21569856901E+01 0.21585381607E+01 0.21593890965E+01 0.21595493810E+01 0.21590535709E+01
 0.21579386964E+01 0.21562416296E+01 0.21540060818E+01 0.21512907973E+01 0.21481795739E+01
 0.21447990831E+01 0.21413435923E+01 0.21380910076E+01 0.21353868106E+01 0.21335833634E+01
 0.21223615567E+01 0.21232661893E+01 0.21258639836E+01 0.21298381735E+01 0.21347503625E+01
 0.21401307614E+01 0.21455460422E+01 0.21506323905E+01 0.21551034336E+01 0.21587503853E+01
 0.21614435279E+01 0.21631315104E+01 0.21638306857E+01 0.21636038152E+01 0.21625378198E+01
 0.21607332256E+01 0.21583101123E+01 0.21554229486E+01 0.21522696133E+01 0.21490834254E+01
 0.21461081106E+01 0.21435661034E+01 0.21416335859E+01 0.21404302167E+01 0.21400221792E+01
 0.21404302167E+01 0.21416335859E+01 0.21435661034E+01 0.21461081106E+01 0.21490834254E+01
 0.21522696133E+01 0.21554229486E+01 0.21583101123E+01 0.21607332256E+01 0.21625378198E+01
 0.21636038152E+01 0.21638306857E+01 0.21631315104E+01 0.21614435279E+01 0.21587503853E+01
 0.21551034336E+01 0.21506323905E+01 0.21455460422E+01 0.21401307614E+01 0.21347503625E+01
 0.21298381735E+01 0.21258639836E+01 0.21232661893E+01 0.21020432952E+01 0.21033080722E+01
 0.21069684940E+01 0.21126524586E+01 0.21198252222E+01 0.21278796159E+01 0.21362111269E+01
 0.21442651454E+01 0.21515624281E+01 0.21577167773E+01 0.21624539075E+01 0.21656298430E+01
 0.21672399858E+01 0.21674100962E+01 0.21663660444E+01 0.21643867784E+01 0.21617521496E+01
 0.21587020966E+01 0.21554229486E+01 0.21520671039E+01 0.21487954564E+01 0.21458161785E+01
 0.21433905147E+01 0.21417919063E+01 0.21412322930E+01 0.21417919063E+01 0.21433905147E+01
 0.21458161785E+01 0.21487954564E+01 0.21520671039E+01 0.21554229486E+01 0.21587020966E+01
 0.21617521496E+01 0.21643867784E+01 0.21663660444E+01 0.21674100962E+01 0.21672399858E+01
 0.21656298430E+01 0.21624539075E+01 0.21577167773E+01 0.21515624281E+01 0.21442651454E+01
 0.21362111269E+01 0.21278796159E+01 0.21198252222E+01 0.21126524586E+01 0.21069684940E+01
 0.21033080722E+01 0.20690852662E+01 0.20708286760E+01 0.20758986644E+01 0.20838442802E+01
 0.20940019990E+01 0.21055948451E+01 0.21178231383E+01 0.21299286652E+01 0.21412306376E+01
 0.21511452935E+01 0.21592061049E+01 0.21650963675E+01 0.21686917774E+01 0.21700933115E+01
 0.21696210625E+01 0.21677484493E+01 0.21649851245E+01 0.21617521496E+01 0.21583101123E+01
 0.21547811227E+01 0.21512534698E+01 0.21479035414E+01 0.21450516701E+01 0.21431048029E+01
 0.21424102221E+01 0.21431048029E+01 0.21450516701E+01 0.21479035414E+01 0.21512534698E+01
 0.21547811227E+01 0.21583101123E+01 0.21617521496E+01 0.21649851245E+01 0.21677484493E+01
 0.21696210625E+01 0.21700933115E+01 0.21686917774E+01 0.21650963675E+01 0.21592061049E+01
 0.21511452935E+01 0.21412306376E+01 0.21299286652E+01 0.21178231383E+01 0.21055948451E+01
 0.20940019990E+01 0.20838442802E+01 0.20758986644E+01 0.20708286760E+01 0.20196879150E+01
 0.20221102043E+01 0.20291689354E+01 0.20402734393E+01 0.20545430127E+01 0.20709342277E+01
 0.20883702662E+01 0.21058404975E+01 0.21224517082E+01 0.21374360795E+01 0.21501455357E+01
 0.21600711160E+01 0.21669070687E+01 0.21706377411E+01 0.21715876618E+01 0.21703740345E+01
 0.21677484493E+01 0.21643867784E+01 0.21607332256E+01 0.21569856901E+01 0.21532273128E+01
 0.21496139256E+01 0.21464858381E+01 0.21443191916E+01 0.21435399070E+01 0.21443191916E+01
 0.21464858381E+01 0.21496139256E+01 0.21532273128E+01 0.21569856901E+01 0.21607332256E+01
 0.21643867784E+01 0.21677484493E+01 0.21703740345E+01 0.21715876618E+01 0.21706377411E+01
 0.21669070687E+01 0.21600711160E+01 0.21501455357E+01 0.21374360795E+01 0.21224517082E+01
 0.21058404975E+01 0.20883702662E+01 0.20709342277E+01 0.20545430127E+01 0.20402734393E+01