unknown system                          
   1.0000000000000000     
     4.192570    0.000000    0.000000
     0.000000    4.192570    0.000000
    -0.000000    0.000000    4.192570
   Na
     2
Direct
  0.000000  0.000000  0.000000
  0.500000  0.500000  0.500000

   48   48   48
 0.91061483720E+00 0.89782720161E+00 0.86297437477E+00 0.81595851464E+00 0.77142577521E+00
 0.74647997260E+00 0.75777856502E+00 0.81781638466E+00 0.93085520228E+00 0.10901674313E+01
 0.12786620093E+01 0.14735384041E+01 0.16531126062E+01 0.18024662650E+01 0.19167983651E+01
 0.20007663082E+01 0.20611181670E+01 0.21035384461E+01 0.21320497050E+01 0.21496892085E+01
 0.21592854443E+01 0.21636385959E+01 0.21651709241E+01 0.21655399246E+01 0.21655847297E+01
 0.21655399246E+01 0.21651709241E+01 0.21636385959E+01 0.21592854443E+01 0.21496892085E+01
 0.21320497050E+01 0.21035384461E+01 0.20611181670E+01 0.20007663082E+01 0.19167983651E+01
 0.18024662650E+01 0.16531126062E+01 0.14735384041E+01 0.12786620093E+01 0.10901674313E+01
 0.93085520228E+00 0.81781638466E+00 0.75777856502E+00 0.74647997260E+00 0.77142577521E+00
 0.81595851464E+00 0.86297437477E+00 0.89782720161E+00 0.89782720161E+00 0.88563070782E+00
 0.85248663665E+00 0.80812321346E+00 0.76694082067E+00 0.74573965154E+00 0.76079935593E+00
 0.82416168688E+00 0.93962982007E+00 0.11001523290E+01 0.12885832885E+01 0.14823676835E+01
 0.16602622541E+01 0.18078085483E+01 0.19206400202E+01 0.20035247191E+01 0.20631218795E+01
 0.21050013298E+01 0.21331051607E+01 0.21504367807E+01 0.21598181585E+01 0.21640446911E+01
 0.21655209266E+01 0.21658751382E+01 0.21659187936E+01 0.21658751382E+01 0.21655209266E+01
 0.21640446911E+01 0.21598181585E+01 0.21504367807E+01 0.21331051607E+01 0.21050013298E+01
 0.20631218795E+01 0.20035247191E+01 0.19206400202E+01 0.18078085483E+01 0.16602622541E+01
 0.14823676835E+01 0.12885832885E+01 0.11001523290E+01 0.93962982007E+00 0.82416168688E+00
 0.76079935593E+00 0.74573965154E+00 0.76694082067E+00 0.80812321346E+00 0.85248663665E+00
 0.88563070782E+00 0.86297437477E+00 0.85248663665E+00 0.82428782983E+00 0.78761195385E+00
 0.75614166183E+00 0.74576670332E+00 0.77162687821E+00 0.84441738955E+00 0.96661415397E+00
 0.11302692947E+01 0.13181426741E+01 0.15084485796E+01 0.16812488853E+01 0.18234244788E+01
 0.19318611533E+01 0.20115789557E+01 0.20689653585E+01 0.21092547439E+01 0.21361582219E+01
 0.21525836411E+01 0.21613345533E+01 0.21651906951E+01 0.21665027595E+01 0.21668129736E+01
 0.21668527981E+01 0.21668129736E+01 0.21665027595E+01 0.21651906951E+01 0.21613345533E+01
 0.21525836411E+01 0.21361582219E+01 0.21092547439E+01 0.20689653585E+01 0.20115789557E+01
 0.19318611533E+01 0.18234244788E+01 0.16812488853E+01 0.15084485796E+01 0.13181426741E+01
 0.11302692947E+01 0.96661415397E+00 0.84441738955E+00 0.77162687821E+00 0.74576670332E+00
 0.75614166183E+00 0.78761195385E+00 0.82428782983E+00 0.85248663665E+00 0.81595851464E+00
 0.80812321346E+00 0.78761195385E+00 0.76290185415E+00 0.74652446371E+00 0.75285174515E+00
 0.79511826218E+00 0.88183869044E+00 0.10134508525E+01 0.11807587728E+01 0.13665809017E+01
 0.15505002695E+01 0.17146830012E+01 0.18481232091E+01 0.19495899865E+01 0.20242993271E+01
 0.20781740025E+01 0.21159194157E+01 0.21408957813E+01 0.21558703628E+01 0.21636186600E+01
 0.21668896217E+01 0.21679421533E+01 0.21681807240E+01 0.21682131248E+01 0.21681807240E+01
 0.21679421533E+01 0.21668896217E+01 0.21636186600E+01 0.21558703628E+01 0.21408957813E+01
 0.21159194157E+01 0.20781740025E+01 0.20242993271E+01 0.19495899865E+01 0.18481232091E+01
 0.17146830012E+01 0.15505002695E+01 0.13665809017E+01 0.11807587728E+01 0.10134508525E+01
 0.88183869044E+00 0.79511826218E+00 0.75285174515E+00 0.74652446371E+00 0.76290185415E+00
 0.78761195385E+00 0.80812321346E+00 0.77142577521E+00 0.76694082067E+00 0.75614166183E+00
 0.74652446371E+00 0.74905847509E+00 0.77599586315E+00 0.83794496961E+00 0.94056327494E+00
 0.10818284697E+01 0.12512865106E+01 0.14322216421E+01 0.16062420129E+01 0.17582711455E+01
 0.18800655256E+01 0.19725034776E+01 0.20407406742E+01 0.20900425478E+01 0.21244409244E+01
 0.21468731847E+01 0.21599442616E+01 0.21663923483E+01 0.21689125405E+01 0.21696320801E+01
 0.21697750599E+01 0.21697955312E+01 0.21697750599E+01 0.21696320801E+01 0.21689125405E+01
 0.21663923483E+01 0.21599442616E+01 0.21468731847E+01 0.21244409244E+01 0.20900425478E+01
 0.20407406742E+01 0.19725034776E+01 0.18800655256E+01 0.17582711455E+01 0.16062420129E+01
 0.14322216421E+01 0.12512865106E+01 0.10818284697E+01 0.94056327494E+00 0.83794496961E+00
 0.77599586315E+00 0.74905847509E+00 0.74652446371E+00 0.75614166183E+00 0.76694082067E+00
 0.74647997260E+00 0.74573965154E+00 0.74576670332E+00 0.75285174515E+00 0.77599586315E+00
 0.82477681349E+00 0.90660763547E+00 0.10239115145E+01 0.11721953151E+01 0.13401308786E+01
 0.15120940201E+01 0.16723342743E+01 0.18089399603E+01 0.19169895748E+01 0.19990078716E+01
 0.20597754387E+01 0.21037364133E+01 0.21341758773E+01 0.21535953081E+01 0.21644388859E+01
 0.21693932195E+01 0.21710646303E+01 0.21714079280E+01 0.21714375330E+01 0.21714410263E+01
 0.21714375330E+01 0.21714079280E+01 0.21710646303E+01 0.21693932195E+01 0.21644388859E+01
 0.21535953081E+01 0.21341758773E+01 0.21037364133E+01 0.20597754387E+01 0.19990078716E+01
 0.19169895748E+01 0.18089399603E+01 0.16723342743E+01 0.15120940201E+01 0.13401308786E+01
 0.11721953151E+01 0.10239115145E+01 0.90660763547E+00 0.82477681349E+00 0.77599586315E+00
 0.75285174515E+00 0.74576670332E+00 0.74573965154E+00 0.75777856502E+00 0.76079935593E+00
 0.77162687821E+00 0.79511826218E+00 0.83794496961E+00 0.90660763547E+00 0.10050569291E+01
 0.11325381612E+01 0.12825371991E+01 0.14435650450E+01 0.16017885899E+01 0.17445240437E+01
 0.18632590850E+01 0.19565068138E+01 0.20274492895E+01 0.20802346873E+01 0.21183903422E+01
 0.21444693691E+01 0.21605829497E+01 0.21690316038E+01 0.21724234934E+01 0.21732268905E+01
 0.21731850339E+01 0.21730906075E+01 0.21730716585E+01 0.21730906075E+01 0.21731850339E+01
 0.21732268905E+01 0.21724234934E+01 0.21690316038E+01 0.21605829497E+01 0.21444693691E+01
 0.21183903422E+01 0.20802346873E+01 0.20274492895E+01 0.19565068138E+01 0.18632590850E+01
 0.17445240437E+01 0.16017885899E+01 0.14435650450E+01 0.12825371991E+01 0.11325381612E+01
 0.10050569291E+01 0.90660763547E+00 0.83794496961E+00 0.79511826218E+00 0.77162687821E+00
 0.76079935593E+00 0.81781638466E+00 0.82416168688E+00 0.84441738955E+00 0.88183869044E+00
 0.94056327494E+00 0.10239115145E+01 0.11325381612E+01 0.12630458096E+01 0.14077250145E+01
 0.15557781720E+01 0.16957259471E+01 0.18180579841E+01 0.19180044863E+01 0.19964016313E+01
 0.20563002743E+01 0.21010208217E+01 0.21331820245E+01 0.21547089434E+01 0.21674121994E+01
 0.21734667976E+01 0.21753565313E+01 0.21753493584E+01 0.21749438691E+01 0.21747192045E+01
 0.21746710950E+01 0.21747192045E+01 0.21749438691E+01 0.21753493584E+01 0.21753565313E+01
 0.21734667976E+01 0.21674121994E+01 0.21547089434E+01 0.21331820245E+01 0.21010208217E+01
 0.20563002743E+01 0.19964016313E+01 0.19180044863E+01 0.18180579841E+01 0.16957259471E+01
 0.15557781720E+01 0.14077250145E+01 0.12630458096E+01 0.11325381612E+01 0.10239115145E+01
 0.94056327494E+00 0.88183869044E+00 0.84441738955E+00 0.82416168688E+00 0.93085520228E+00
 0.93962982007E+00 0.96661415397E+00 0.10134508525E+01 0.10818284697E+01 0.11721953151E+01
 0.12825371991E+01 0.14077250145E+01 0.15398367428E+01 0.16695032286E+01 0.17878419757E+01
 0.18886337517E+01 0.19704767888E+01 0.20348457959E+01 0.20842686502E+01 0.21211660436E+01
 0.21473718779E+01 0.21643548887E+01 0.21737310215E+01 0.21775522922E+01 0.21781119538E+01
 0.21774097282E+01 0.21766790360E+01 0.21763154487E+01 0.21762282611E+01 0.21763154487E+01
 0.21766790360E+01 0.21774097282E+01 0.21781119538E+01 0.21775522922E+01 0.21737310215E+01
 0.21643548887E+01 0.21473718779E+01 0.21211660436E+01 0.20842686502E+01 0.20348457959E+01
 0.19704767888E+01 0.18886337517E+01 0.17878419757E+01 0.16695032286E+01 0.15398367428E+01
 0.14077250145E+01 0.12825371991E+01 0.11721953151E+01 0.10818284697E+01 0.10134508525E+01
 0.96661415397E+00 0.93962982007E+00 0.10901674313E+01 0.11001523290E+01 0.11302692947E+01
 0.11807587728E+01 0.12512865106E+01 0.13401308786E+01 0.14435650450E+01 0.15557781720E+01
 0.16695032286E+01 0.17772165486E+01 0.18727168166E+01 0.19532403956E+01 0.20187105402E+01
 0.20704664326E+01 0.21103084438E+01 0.21398371446E+01 0.21603168638E+01 0.21729563405E+01
 0.21792644141E+01 0.21811450364E+01 0.21806219277E+01 0.21793663959E+01 0.21783462186E+01
 0.21778240824E+01 0.21776826713E+01 0.21778240824E+01 0.21783462186E+01 0.21793663959E+01
 0.21806219277E+01 0.21811450364E+01 0.21792644141E+01 0.21729563405E+01 0.21603168638E+01
 0.21398371446E+01 0.21103084438E+01 0.20704664326E+01 0.20187105402E+01 0.19532403956E+01
 0.18727168166E+01 0.17772165486E+01 0.16695032286E+01 0.15557781720E+01 0.14435650450E+01
 0.13401308786E+01 0.12512865106E+01 0.11807587728E+01 0.11302692947E+01 0.11001523290E+01
 0.12786620093E+01 0.12885832885E+01 0.13181426741E+01 0.13665809017E+01 0.14322216421E+01
 0.15120940201E+01 0.16017885899E+01 0.16957259471E+01 0.17878419757E+01 0.18727168166E+01
 0.19471956367E+01 0.20100677291E+01 0.20614691421E+01 0.21022788918E+01 0.21335667257E+01
 0.21563185589E+01 0.21714790634E+01 0.21801642203E+01 0.21838160687E+01 0.21841372997E+01
 0.21828066729E+01 0.21811310765E+01 0.21798377536E+01 0.21791225295E+01 0.21789065305E+01
 0.21791225295E+01 0.21798377536E+01 0.21811310765E+01 0.21828066729E+01 0.21841372997E+01
 0.21838160687E+01 0.21801642203E+01 0.21714790634E+01 0.21563185589E+01 0.21335667257E+01
 0.21022788918E+01 0.20614691421E+01 0.20100677291E+01 0.19471956367E+01 0.18727168166E+01
 0.17878419757E+01 0.16957259471E+01 0.16017885899E+01 0.15120940201E+01 0.14322216421E+01
 0.13665809017E+01 0.13181426741E+01 0.12885832885E+01 0.14735384041E+01 0.14823676835E+01
 0.15084485796E+01 0.15505002695E+01 0.16062420129E+01 0.16723342743E+01 0.17445240437E+01
 0.18180579841E+01 0.18886337517E+01 0.19532403956E+01 0.20100677291E+01 0.20583576955E+01
 0.20980770977E+01 0.21295693835E+01 0.21533396968E+01 0.21700204074E+01 0.21804506862E+01
 0.21857472854E+01 0.21872676201E+01 0.21864458371E+01 0.21845653674E+01 0.21825704739E+01
 0.21809980583E+01 0.21800472855E+01 0.21797352632E+01 0.21800472855E+01 0.21809980583E+01
 0.21825704739E+01 0.21845653674E+01 0.21864458371E+01 0.21872676201E+01 0.21857472854E+01
 0.21804506862E+01 0.21700204074E+01 0.21533396968E+01 0.21295693835E+01 0.20980770977E+01
 0.20583576955E+01 0.20100677291E+01 0.19532403956E+01 0.18886337517E+01 0.18180579841E+01
 0.17445240437E+01 0.16723342743E+01 0.16062420129E+01 0.15505002695E+01 0.15084485796E+01
 0.14823676835E+01 0.16531126062E+01 0.16602622541E+01 0.16812488853E+01 0.17146830012E+01
 0.17582711455E+01 0.18089399603E+01 0.18632590850E+01 0.19180044863E+01 0.19704767888E+01
 0.20187105402E+01 0.20614691421E+01 0.20980770977E+01 0.21282201828E+01 0.21518321599E+01
 0.21691018746E+01 0.21805396633E+01 0.21870020428E+01 0.21896098353E+01 0.21895737104E+01
 0.21880032751E+01 0.21857806139E+01 0.21835314656E+01 0.21816683047E+01 0.21804515897E+01
 0.21800296601E+01 0.21804515897E+01 0.21816683047E+01 0.21835314656E+01 0.21857806139E+01
 0.21880032751E+01 0.21895737104E+01 0.21896098353E+01 0.21870020428E+01 0.21805396633E+01
 0.21691018746E+01 0.21518321599E+01 0.21282201828E+01 0.20980770977E+01 0.20614691421E+01
 0.20187105402E+01 0.19704767888E+01 0.19180044863E+01 0.18632590850E+01 0.18089399603E+01
 0.17582711455E+01 0.17146830012E+01 0.16812488853E+01 0.16602622541E+01 0.18024662650E+01
 0.18078085483E+01 0.18234244788E+01 0.18481232091E+01 0.18800655256E+01 0.19169895748E+01
 0.19565068138E+01 0.19964016313E+01 0.20348457959E+01 0.20704664326E+01 0.21022788918E+01
 0.21295693835E+01 0.21518321599E+01 0.21688121136E+01 0.21806113634E+01 0.21877558018E+01
 0.21911335314E+01 0.21918020989E+01 0.21907532678E+01 0.21887546295E+01 0.21863342330E+01
 0.21838775641E+01 0.21817371943E+01 0.21802630323E+01 0.21797352632E+01 0.21802630323E+01
 0.21817371943E+01 0.21838775641E+01 0.21863342330E+01 0.21887546295E+01 0.21907532678E+01
 0.21918020989E+01 0.21911335314E+01 0.21877558018E+01 0.21806113634E+01 0.21688121136E+01
 0.21518321599E+01 0.21295693835E+01 0.21022788918E+01 0.20704664326E+01 0.20348457959E+01
 0.19964016313E+01 0.19565068138E+01 0.19169895748E+01 0.18800655256E+01 0.18481232091E+01
 0.18234244788E+01 0.18078085483E+01 0.19167983651E+01 0.19206400202E+01 0.19318611533E+01
 0.19495899865E+01 0.19725034776E+01 0.19990078716E+01 0.20274492895E+01 0.20563002743E+01
 0.20842686502E+01 0.21103084438E+01 0.21335667257E+01 0.21533396968E+01 0.21691018746E+01
 0.21806113634E+01 0.21880211831E+01 0.21918978342E+01 0.21930932963E+01 0.21925105984E+01
 0.21908801758E+01 0.21886653672E+01 0.21861341805E+01 0.21835251841E+01 0.21811753997E+01
 0.21795112137E+01 0.21789065305E+01 0.21795112137E+01 0.21811753997E+01 0.21835251841E+01
 0.21861341805E+01 0.21886653672E+01 0.21908801758E+01 0.21925105984E+01 0.21930932963E+01
 0.21918978342E+01 0.21880211831E+01 0.21806113634E+01 0.21691018746E+01 0.21533396968E+01
 0.21335667257E+01 0.21103084438E+01 0.20842686502E+01 0.20563002743E+01 0.20274492895E+01
 0.19990078716E+01 0.19725034776E+01 0.19495899865E+01 0.19318611533E+01 0.19206400202E+01
 0.20007663082E+01 0.20035247191E+01 0.20115789557E+01 0.20242993271E+01 0.20407406742E+01
 0.20597754387E+01 0.20802346873E+01 0.21010208217E+01 0.21211660436E+01 0.21398371446E+01
 0.21563185589E+01 0.21700204074E+01 0.21805396633E+01 0.21877558018E+01 0.21918978342E+01
 0.21935144365E+01 0.21933268686E+01 0.21920197972E+01 0.21900758178E+01 0.21877436139E+01
 0.21851498231E+01 0.21824711838E+01 0.21800417088E+01 0.21783124336E+01 0.21776826713E+01
 0.21783124336E+01 0.21800417088E+01 0.21824711838E+01 0.21851498231E+01 0.21877436139E+01
 0.21900758178E+01 0.21920197972E+01 0.21933268686E+01 0.21935144365E+01 0.21918978342E+01
 0.21877558018E+01 0.21805396633E+01 0.21700204074E+01 0.21563185589E+01 0.21398371446E+01
 0.21211660436E+01 0.21010208217E+01 0.20802346873E+01 0.20597754387E+01 0.20407406742E+01
 0.20242993271E+01 0.20115789557E+01 0.20035247191E+01 0.20611181670E+01 0.20631218795E+01
 0.20689653585E+01 0.20781740025E+01 0.20900425478E+01 0.21037364133E+01 0.21183903422E+01
 0.21331820245E+01 0.21473718779E+01 0.21603168638E+01 0.21714790634E+01 0.21804506862E+01
 0.21870020428E+01 0.21911335314E+01 0.21930932963E+01 0.21933268686E+01 0.21923585347E+01
 0.21906493775E+01 0.21885025659E+01 0.21860684935E+01 0.21834449112E+01 0.21808049379E+01
 0.21784625021E+01 0.21768211780E+01 0.21762282611E+01 0.21768211780E+01 0.21784625021E+01
 0.21808049379E+01 0.21834449112E+01 0.21860684935E+01 0.21885025659E+01 0.21906493775E+01
 0.21923585347E+01 0.21933268686E+01 0.21930932963E+01 0.21911335314E+01 0.21870020428E+01
 0.21804506862E+01 0.21714790634E+01 0.21603168638E+01 0.21473718779E+01 0.21331820245E+01
 0.21183903422E+01 0.21037364133E+01 0.20900425478E+01 0.20781740025E+01 0.20689653585E+01
 0.20631218795E+01 0.21035384461E+01 0.21050013298E+01 0.21092547439E+01 0.21159194157E+01
 0.21244409244E+01 0.21341758773E+01 0.21444693691E+01 0.21547089434E+01 0.21643548887E+01
 0.21729563405E+01 0.21801642203E+01 0.21857472854E+01 0.21896098353E+01 0.21918020989E+01
 0.21925105984E+01 0.21920197972E+01 0.21906493775E+01 0.21886882336E+01 0.21863552090E+01
 0.21838074988E+01 0.21811912181E+01 0.21786999486E+01 0.21765968737E+01 0.21751752598E+01
 0.21746710950E+01 0.21751752598E+01 0.21765968737E+01 0.21786999486E+01 0.21811912181E+01
 0.21838074988E+01 0.21863552090E+01 0.21886882336E+01 0.21906493775E+01 0.21920197972E+01
 0.21925105984E+01 0.21918020989E+01 0.21896098353E+01 0.21857472854E+01 0.21801642203E+01
 0.21729563405E+01 0.21643548887E+01 0.21547089434E+01 0.21444693691E+01 0.21341758773E+01
 0.21244409244E+01 0.21159194157E+01 0.21092547439E+01 0.21050013298E+01 0.21320497050E+01
 0.21331051607E+01 0.21361582219E+01 0.21408957813E+01 0.21468731847E+01 0.21535953081E+01
 0.21605829497E+01 0.21674121994E+01 0.21737310215E+01 0.21792644141E+01 0.21838160687E+01
 0.21872676201E+01 0.21895737104E+01 0.21907532678E+01 0.21908801758E+01 0.21900758178E+01
 0.21885025659E+01 0.21863552090E+01 0.21838490552E+01 0.21812070051E+01 0.21786490321E+01
 0.21763845183E+01 0.21746037251E+01 0.21734640910E+01 0.21730716585E+01 0.21734640910E+01
 0.21746037251E+01 0.21763845183E+01 0.21786490321E+01 0.21812070051E+01 0.21838490552E+01
 0.21863552090E+01 0.21885025659E+01 0.21900758178E+01 0.21908801758E+01 0.21907532678E+01
 0.21895737104E+01 0.21872676201E+01 0.21838160687E+01 0.21792644141E+01 0.21737310215E+01
 0.21674121994E+01 0.21605829497E+01 0.21535953081E+01 0.21468731847E+01 0.21408957813E+01
 0.21361582219E+01 0.21331051607E+01 0.21496892085E+01 0.21504367807E+01 0.21525836411E+01
 0.21558703628E+01 0.21599442616E+01 0.21644388859E+01 0.21690316038E+01 0.21734667976E+01
 0.21775522922E+01 0.21811450364E+01 0.21841372997E+01 0.21864458371E+01 0.21880032751E+01
 0.21887546295E+01 0.21886653672E+01 0.21877436139E+01 0.21860684935E+01 0.21838074988E+01
 0.21812070051E+01 0.21785528766E+01 0.21761148854E+01 0.21740984192E+01 0.21726234084E+01
 0.21717359121E+01 0.21714410263E+01 0.21717359121E+01 0.21726234084E+01 0.21740984192E+01
 0.21761148854E+01 0.21785528766E+01 0.21812070051E+01 0.21838074988E+01 0.21860684935E+01
 0.21877436139E+01 0.21886653672E+01 0.21887546295E+01 0.21880032751E+01 0.21864458371E+01
 0.21841372997E+01 0.21811450364E+01 0.21775522922E+01 0.21734667976E+01 0.21690316038E+01
 0.21644388859E+01 0.21599442616E+01 0.21558703628E+01 0.21525836411E+01 0.21504367807E+01
 0.21592854443E+01 0.21598181585E+01 0.21613345533E+01 0.21636186600E+01 0.21663923483E+01
 0.21693932195E+01 0.21724234934E+01 0.21753565313E+01 0.21781119538E+01 0.21806219277E+01
 0.21828066729E+01 0.21845653674E+01 0.21857806139E+01 0.21863342330E+01 0.21861341805E+01
 0.21851498231E+01 0.21834449112E+01 0.21811912181E+01 0.21786490321E+01 0.21761148854E+01
 0.21738545505E+01 0.21720491158E+01 0.21707769332E+01 0.21700365910E+01 0.21697955312E+01
 0.21700365910E+01 0.21707769332E+01 0.21720491158E+01 0.21738545505E+01 0.21761148854E+01
 0.21786490321E+01 0.21811912181E+01 0.21834449112E+01 0.21851498231E+01 0.21861341805E+01
 0.21863342330E+01 0.21857806139E+01 0.21845653674E+01 0.21828066729E+01 0.21806219277E+01
 0.21781119538E+01 0.21753565313E+01 0.21724234934E+01 0.21693932195E+01 0.21663923483E+01
 0.21636186600E+01 0.21613345533E+01 0.21598181585E+01 0.21636385959E+01 0.21640446911E+01
 0.21651906951E+01 0.21668896217E+01 0.21689125405E+01 0.21710646303E+01 0.21732268905E+01
 0.21753493584E+01 0.21774097282E+01 0.21793663959E+01 0.21811310765E+01 0.21825704739E+01
 0.21835314656E+01 0.21838775641E+01 0.21835251841E+01 0.21824711838E+01 0.21808049379E+01
 0.21786999486E+01 0.21763845183E+01 0.21740984192E+01 0.21720491158E+01 0.21703822619E+01
 0.21691752840E+01 0.21684527481E+01 0.21682131248E+01 0.21684527481E+01 0.21691752840E+01
 0.21703822619E+01 0.21720491158E+01 0.21740984192E+01 0.21763845183E+01 0.21786999486E+01
 0.21808049379E+01 0.21824711838E+01 0.21835251841E+01 0.21838775641E+01 0.21835314656E+01
 0.21825704739E+01 0.21811310765E+01 0.21793663959E+01 0.21774097282E+01 0.21753493584E+01
 0.21732268905E+01 0.21710646303E+01 0.21689125405E+01 0.21668896217E+01 0.21651906951E+01
 0.21640446911E+01 0.21651709241E+01 0.21655209266E+01 0.21665027595E+01 0.21679421533E+01
 0.21696320801E+01 0.21714079280E+01 0.21731850339E+01 0.21749438691E+01 0.21766790360E+01
 0.21783462186E+01 0.21798377536E+01 0.21809980583E+01 0.21816683047E+01 0.21817371943E+01
 0.21811753997E+01 0.21800417088E+01 0.21784625021E+01 0.21765968737E+01 0.21746037251E+01
 0.21726234084E+01 0.21707769332E+01 0.21691752840E+01 0.21679260455E+01 0.21671278111E+01
 0.21668527981E+01 0.21671278111E+01 0.21679260455E+01 0.21691752840E+01 0.21707769332E+01
 0.21726234084E+01 0.21746037251E+01 0.21765968737E+01 0.21784625021E+01 0.21800417088E+01
 0.21811753997E+01 0.21817371943E+01 0.21816683047E+01 0.21809980583E+01 0.21798377536E+01
 0.21783462186E+01 0.21766790360E+01 0.21749438691E+01 0.21731850339E+01 0.21714079280E+01
 0.21696320801E+01 0.21679421533E+01 0.21665027595E+01 0.21655209266E+01 0.21655399246E+01
 0.21658751382E+01 0.21668129736E+01 0.21681807240E+01 0.21697750599E+01 0.21714375330E+01
 0.21730906075E+01 0.21747192045E+01 0.21763154487E+01 0.21778240824E+01 0.21791225295E+01
 0.21800472855E+01 0.21804515897E+01 0.21802630323E+01 0.21795112137E+01 0.21783124336E+01
 0.21768211780E+01 0.21751752598E+01 0.21734640910E+01 0.21717359121E+01 0.21700365910E+01
 0.21684527481E+01 0.21671278111E+01 0.21662350997E+01 0.21659187936E+01 0.21662350997E+01
 0.21671278111E+01 0.21684527481E+01 0.21700365910E+01 0.21717359121E+01 0.21734640910E+01
 0.21751752598E+01 0.21768211780E+01 0.21783124336E+01 0.21795112137E+01 0.21802630323E+01
 0.21804515897E+01 0.21800472855E+01 0.21791225295E+01 0.21778240824E+01 0.21763154487E+01
 0.21747192045E+01 0.21730906075E+01 0.21714375330E+01 0.21697750599E+01 0.21681807240E+01
 0.21668129736E+01 0.21658751382E+01 0.21655847297E+01 0.21659187936E+01 0.21668527981E+01
 0.21682131248E+01 0.21697955312E+01 0.21714410263E+01 0.21730716585E+01 0.21746710950E+01
 0.21762282611E+01 0.21776826713E+01 0.21789065305E+01 0.21797352632E+01 0.21800296601E+01
 0.21797352632E+01 0.21789065305E+01 0.21776826713E+01 0.21762282611E+01 0.21746710950E+01
 0.21730716585E+01 0.21714410263E+01 0.21697955312E+01 0.21682131248E+01 0.21668527981E+01
 0.21659187936E+01 0.21655847297E+01 0.21659187936E+01 0.21668527981E+01 0.21682131248E+01
 0.21697955312E+01 0.21714410263E+01 0.21730716585E+01 0.21746710950E+01 0.21762282611E+01
 0.21776826713E+01 0.21789065305E+01 0.21797352632E+01 0.21800296601E+01 0.21797352632E+01
 0.21789065305E+01 0.21776826713E+01 0.21762282611E+01 0.21746710950E+01 0.21730716585E+01
 0.21714410263E+01 0.21697955312E+01 0.21682131248E+01 0.21668527981E+01 0.21659187936E+01
 0.21655399246E+01 0.21658751382E+01 0.21668129736E+01 0.21681807240E+01 0.21697750599E+01
 0.21714375330E+01 0.21730906075E+01 0.21747192045E+01 0.21763154487E+01 0.21778240824E+01
 0.21791225295E+01 0.21800472855E+01 0.21804515897E+01 0.21802630323E+01 0.21795112137E+01
 0.21783124336E+01 0.21768211780E+01 0.21751752598E+01 0.21734640910E+01 0.21717359121E+01
 0.21700365910E+01 0.21684527481E+01 0.21671278111E+01 0.21662350997E+01 0.21659187936E+01
 0.21662350997E+01 0.21671278111E+01 0.21684527481E+01 0.21700365910E+01 0.21717359121E+01
 0.21734640910E+01 0.21751752598E+01 0.21768211780E+01 0.21783124336E+01 0.21795112137E+01
 0.21802630323E+01 0.21804515897E+01 0.21800472855E+01 0.21791225295E+01 0.21778240824E+01
 0.21763154487E+01 0.21747192045E+01 0.21730906075E+01 0.21714375330E+01 0.21697750599E+01
 0.21681807240E+01 0.21668129736E+01 0.21658751382E+01 0.21651709241E+01 0.21655209266E+01
 0.21665027595E+01 0.21679421533E+01 0.21696320801E+01 0.21714079280E+01 0.21731850339E+01
 0.21749438691E+01 0.21766790360E+01 0.21783462186E+01 0.21798377536E+01 0.21809980583E+01
 0.21816683047E+01 0.21817371943E+01 0.21811753997E+01 0.21800417088E+01 0.21784625021E+01
 0.21765968737E+01 0.21746037251E+01 0.21726234084E+01 0.21707769332E+01 0.21691752840E+01
 0.21679260455E+01 0.21671278111E+01 0.21668527981E+01 0.21671278111E+01 0.21679260455E+01
 0.21691752840E+01 0.21707769332E+01 0.21726234084E+01 0.21746037251E+01 0.21765968737E+01
 0.21784625021E+01 0.21800417088E+01 0.21811753997E+01 0.21817371943E+01 0.21816683047E+01
 0.21809980583E+01 0.21798377536E+01 0.21783462186E+01 0.21766790360E+01 0.21749438691E+01
 0.21731850339E+01 0.21714079280E+01 0.21696320801E+01 0.21679421533E+01 0.21665027595E+01
 0.21655209266E+01 0.21636385959E+01 0.21640446911E+01 0.21651906951E+01 0.21668896217E+01
 0.21689125405E+01 0.21710646303E+01 0.21732268905E+01 0.21753493584E+01 0.21774097282E+01
 0.21793663959E+01 0.21811310765E+01 0.21825704739E+01 0.21835314656E+01 0.21838775641E+01
 0.21835251841E+01 0.21824711838E+01 0.21808049379E+01 0.21786999486E+01 0.21763845183E+01
 0.21740984192E+01 0.21720491158E+01 0.21703822619E+01 0.21691752840E+01 0.21684527481E+01
 0.21682131248E+01 0.21684527481E+01 0.21691752840E+01 0.21703822619E+01 0.21720491158E+01
 0.21740984192E+01 0.21763845183E+01 0.21786999486E+01 0.21808049379E+01 0.21824711838E+01
 0.21835251841E+01 0.21838775641E+01 0.21835314656E+01 0.21825704739E+01 0.21811310765E+01
 0.21793663959E+01 0.21774097282E+01 0.21753493584E+01 0.21732268905E+01 0.21710646303E+01
 0.21689125405E+01 0.21668896217E+01 0.21651906951E+01 0.21640446911E+01 0.21592854443E+01
 0.21598181585E+01 0.21613345533E+01 0.21636186600E+01 0.21663923483E+01 0.21693932195E+01
 0.21724234934E+01 0.21753565313E+01 0.21781119538E+01 0.21806219277E+01 0.21828066729E+01
 0.21845653674E+01 0.21857806139E+01 0.21863342330E+01 0.21861341805E+01 0.21851498231E+01
 0.21834449112E+01 0.21811912181E+01 0.21786490321E+01 0.21761148854E+01 0.21738545505E+01
 0.21720491158E+01 0.21707769332E+01 0.21700365910E+01 0.21697955312E+01 0.21700365910E+01
 0.21707769332E+01 0.21720491158E+01 0.21738545505E+01 0.21761148854E+01 0.21786490321E+01
 0.21811912181E+01 0.21834449112E+01 0.21851498231E+01 0.21861341805E+01 0.21863342330E+01
 0.21857806139E+01 0.21845653674E+01 0.21828066729E+01 0.21806219277E+01 0.21781119538E+01
 0.21753565313E+01 0.21724234934E+01 0.21693932195E+01 0.21663923483E+01 0.21636186600E+01
 0.21613345533E+01 0.21598181585E+01 0.21496892085E+01 0.21504367807E+01 0.21525836411E+01
 0.21558703628E+01 0.21599442616E+01 0.21644388859E+01 0.21690316038E+01 0.21734667976E+01
 0.21775522922E+01 0.21811450364E+01 0.21841372997E+01 0.21864458371E+01 0.21880032751E+01
 0.21887546295E+01 0.21886653672E+01 0.21877436139E+01 0.21860684935E+01 0.21838074988E+01
 0.21812070051E+01 0.21785528766E+01 0.21761148854E+01 0.21740984192E+01 0.21726234084E+01
 0.21717359121E+01 0.21714410263E+01 0.21717359121E+01 0.21726234084E+01 0.21740984192E+01
 0.21761148854E+01 0.21785528766E+01 0.21812070051E+01 0.21838074988E+01 0.21860684935E+01
 0.21877436139E+01 0.21886653672E+01 0.21887546295E+01 0.21880032751E+01 0.21864458371E+01
 0.21841372997E+01 0.21811450364E+01 0.21775522922E+01 0.21734667976E+01 0.21690316038E+01
 0.21644388859E+01 0.21599442616E+01 0.21558703628E+01 0.21525836411E+01 0.21504367807E+01
 0.21320497050E+01 0.21331051607E+01 0.21361582219E+01 0.21408957813E+01 0.21468731847E+01
 0.21535953081E+01 0.21605829497E+01 0.21674121994E+01 0.21737310215E+01 0.21792644141E+01
 0.21838160687E+01 0.21872676201E+01 0.21895737104E+01 0.21907532678E+01 0.21908801758E+01
 0.21900758178E+01 0.21885025659E+01 0.21863552090E+01 0.21838490552E+01 0.21812070051E+01
 0.21786490321E+01 0.21763845183E+01 0.21746037251E+01 0.21734640910E+01 0.21730716585E+01
 0.21734640910E+01 0.21746037251E+01 0.21763845183E+01 0.21786490321E+01 0.21812070051E+01
 0.21838490552E+01 0.21863552090E+01 0.21885025659E+01 0.21900758178E+01 0.21908801758E+01
 0.21907532678E+01 0.21895737104E+01 0.21872676201E+01 0.21838160687E+01 0.21792644141E+01
 0.21737310215E+01 0.21674121994E+01 0.21605829497E+01 0.21535953081E+01 0.21468731847E+01
 0.21408957813E+01 0.21361582219E+01 0.21331051607E+01 0.21035384461E+01 0.21050013298E+01
 0.21092547439E+01 0.21159194157E+01 0.21244409244E+01 0.21341758773E+01 0.21444693691E+01
 0.21547089434E+01 0.21643548887E+01 0.21729563405E+01 0.21801642203E+01 0.21857472854E+01
 0.21896098353E+01 0.21918020989E+01 0.21925105984E+01 0.21920197972E+01 0.21906493775E+01
 0.21886882336E+01 0.21863552090E+01 0.21838074988E+01 0.21811912181E+01 0.21786999486E+01
 0.21765968737E+01 0.21751752598E+01 0.21746710950E+01 0.21751752598E+01 0.21765968737E+01
 0.21786999486E+01 0.21811912181E+01 0.21838074988E+01 0.21863552090E+01 0.21886882336E+01
 0.21906493775E+01 0.21920197972E+01 0.21925105984E+01 0.21918020989E+01 0.21896098353E+01
 0.21857472854E+01 0.21801642203E+01 0.21729563405E+01 0.21643548887E+01 0.21547089434E+01
 0.21444693691E+01 0.21341758773E+01 0.21244409244E+01 0.21159194157E+01 0.21092547439E+01
 0.21050013298E+01 0.20611181670E+01 0.20631218795E+01 0.20689653585E+01 0.20781740025E+01
 0.20900425478E+01 0.21037364133E+01 0.21183903422E+01 0.21331820245E+01 0.21473718779E+01
 0.21603168638E+01 0.21714790634E+01 0.21804506862E+01 0.21870020428E+01 0.21911335314E+01
 0.21930932963E+01 0.21933268686E+01 0.21923585347E+01 0.21906493775E+01 0.21885025659E+01
 0.21860684935E+01 0.21834449112E+01 0.21808049379E+01 0.21784625021E+01 0.21768211780E+01
 0.21762282611E+01 0.21768211780E+01 0.21784625021E+01 0.21808049379E+01 0.21834449112E+01
 0.21860684935E+01 0.21885025659E+01 0.21906493775E+01 0.21923585347E+01 0.21933268686E+01
 0.21930932963E+01 0.21911335314E+01 0.21870020428E+01 0.21804506862E+01 0.21714790634E+01
 0.21603168638E+01 0.21473718779E+01 0.21331820245E+01 0.21183903422E+01 0.21037364133E+01
 0.20900425478E+01 0.20781740025E+01 0.20689653585E+01 0.20631218795E+01 0.20007663082E+01
 0.20035247191E+01 0.20115789557E+01 0.20242993271E+01 0.20407406742E+01 0.20597754387E+01
 0.20802346873E+01 0.21010208217E+01 0.21211660436E+01 0.21398371446E+01 0.21563185589E+01
 0.21700204074E+01 0.21805396633E+01 0.21877558018E+01 0.21918978342E+01 0.21935144365E+01
 0.21933268686E+01 0.21920197972E+01 0.21900758178E+01 0.21877436139E+01 0.21851498231E+01
 0.21824711838E+01 0.21800417088E+01 0.21783124336E+01 0.21776826713E+01 0.21783124336E+01
 0.21800417088E+01 0.21824711838E+01 0.21851498231E+01 0.21877436139E+01 0.21900758178E+01
 0.21920197972E+01 0.21933268686E+01 0.21935144365E+01 0.21918978342E+01 0.21877558018E+01
 0.21805396633E+01 0.21700204074E+01 0.21563185589E+01 0.21398371446E+01 0.21211660436E+01
 0.21010208217E+01 0.20802346873E+01 0.20597754387E+01 0.20407406742E+01 0.20242993271E+01