   2   2   0   0
  0.3925636E+02  0.4282000E-09  0.4282000E-09  0.4282000E-09  0.5000000E-15
   1.0000000000000000E-004
  CAR 
 unknown system                          
     10.48286733     -4.75479187  301      0.41485516      1.00000000
     -4.755  0.0000E+00  0.0000E+00
     -4.704  0.0000E+00  0.0000E+00
     -4.653  0.0000E+00  0.0000E+00
     -4.602  0.0000E+00  0.0000E+00
     -4.552  0.0000E+00  0.0000E+00
     -4.501  0.0000E+00  0.0000E+00
     -4.450  0.0000E+00  0.0000E+00
     -4.399 -0.1811E-32 -0.9200E-34
     -4.348 -0.1172E-30 -0.6044E-32
     -4.298 -0.6173E-29 -0.3196E-30
     -4.247 -0.2854E-27 -0.1482E-28
     -4.196 -0.1161E-25 -0.6044E-27
     -4.145 -0.4152E-24 -0.2169E-25
     -4.094 -0.1306E-22 -0.6852E-24
     -4.044 -0.3616E-21 -0.1905E-22
     -3.993 -0.8809E-20 -0.4665E-21
     -3.942 -0.1888E-18 -0.1006E-19
     -3.891 -0.3484E-17 -0.1870E-18
     -3.841 -0.5728E-16 -0.3096E-17
     -3.790 -0.8348E-15 -0.4550E-16
     -3.739 -0.1071E-13 -0.5896E-15
     -3.688 -0.1210E-12 -0.6735E-14
     -3.637 -0.1203E-11 -0.6782E-13
     -3.587 -0.1052E-10 -0.6022E-12
     -3.536 -0.8097E-10 -0.4715E-11
     -3.485 -0.5481E-09 -0.3255E-10
     -3.434 -0.3260E-08 -0.1981E-09
     -3.383 -0.1703E-07 -0.1063E-08
     -3.333 -0.7798E-07 -0.5024E-08
     -3.282 -0.3126E-06 -0.2090E-07
     -3.231 -0.1093E-05 -0.7644E-07
     -3.180 -0.3325E-05 -0.2453E-06
     -3.129 -0.8737E-05 -0.6891E-06
     -3.079 -0.1963E-04 -0.1686E-05
     -3.028 -0.3703E-04 -0.3567E-05
     -2.977 -0.5643E-04 -0.6434E-05
     -2.926 -0.6226E-04 -0.9596E-05
     -2.875 -0.2565E-04 -0.1090E-04
     -2.825  0.8934E-04 -0.6361E-05
     -2.774  0.3109E-03  0.9428E-05
     -2.723  0.6438E-03  0.4213E-04
     -2.672  0.1064E-02  0.9615E-04
     -2.622  0.1521E-02  0.1734E-03
     -2.571  0.1958E-02  0.2729E-03
     -2.520  0.2325E-02  0.3909E-03
     -2.469  0.2609E-02  0.5235E-03
     -2.418  0.2845E-02  0.6680E-03
     -2.368  0.3086E-02  0.8247E-03
     -2.317  0.3356E-02  0.9952E-03
     -2.266  0.3629E-02  0.1179E-02
     -2.215  0.3846E-02  0.1375E-02
     -2.164  0.3972E-02  0.1577E-02
     -2.114  0.4022E-02  0.1781E-02
     -2.063  0.4062E-02  0.1987E-02
     -2.012  0.4182E-02  0.2200E-02
     -1.961  0.4449E-02  0.2426E-02
     -1.910  0.4841E-02  0.2671E-02
     -1.860  0.5234E-02  0.2937E-02
     -1.809  0.5461E-02  0.3215E-02
     -1.758  0.5418E-02  0.3490E-02
     -1.707  0.5163E-02  0.3752E-02
     -1.656  0.4903E-02  0.4001E-02
     -1.606  0.4887E-02  0.4249E-02
     -1.555  0.5238E-02  0.4515E-02
     -1.504  0.5860E-02  0.4813E-02
     -1.453  0.6487E-02  0.5143E-02
     -1.403  0.6855E-02  0.5491E-02
     -1.352  0.6846E-02  0.5839E-02
     -1.301  0.6534E-02  0.6170E-02
     -1.250  0.6145E-02  0.6483E-02
     -1.199  0.5935E-02  0.6784E-02
     -1.149  0.6048E-02  0.7091E-02
     -1.098  0.6422E-02  0.7417E-02
     -1.047  0.6834E-02  0.7765E-02
     -0.996  0.7083E-02  0.8124E-02
     -0.945  0.7144E-02  0.8487E-02
     -0.895  0.7174E-02  0.8851E-02
     -0.844  0.7360E-02  0.9225E-02
     -0.793  0.7749E-02  0.9619E-02
     -0.742  0.8193E-02  0.1004E-01
     -0.691  0.8456E-02  0.1046E-01
     -0.641  0.8368E-02  0.1089E-01
     -0.590  0.7926E-02  0.1129E-01
     -0.539  0.7291E-02  0.1166E-01
     -0.488  0.6742E-02  0.1200E-01
     -0.437  0.6581E-02  0.1234E-01
     -0.387  0.6993E-02  0.1269E-01
     -0.336  0.7909E-02  0.1310E-01
     -0.285  0.9019E-02  0.1355E-01
     -0.234  0.9927E-02  0.1406E-01
     -0.183  0.1035E-01  0.1458E-01
     -0.133  0.1021E-01  0.1510E-01
     -0.082  0.9642E-02  0.1559E-01
     -0.031  0.8903E-02  0.1604E-01
      0.020  0.8293E-02  0.1647E-01
      0.070  0.8013E-02  0.1687E-01
      0.121  0.8085E-02  0.1728E-01
      0.172  0.8367E-02  0.1771E-01
      0.223  0.8688E-02  0.1815E-01
      0.274  0.8989E-02  0.1861E-01
      0.324  0.9359E-02  0.1908E-01
      0.375  0.9899E-02  0.1958E-01
      0.426  0.1055E-01  0.2012E-01
      0.477  0.1106E-01  0.2068E-01
      0.528  0.1115E-01  0.2125E-01
      0.578  0.1074E-01  0.2179E-01
      0.629  0.1010E-01  0.2231E-01
      0.680  0.9651E-02  0.2280E-01
      0.731  0.9756E-02  0.2329E-01
      0.782  0.1040E-01  0.2382E-01
      0.832  0.1117E-01  0.2439E-01
      0.883  0.1154E-01  0.2497E-01
      0.934  0.1127E-01  0.2555E-01
      0.985  0.1058E-01  0.2608E-01
      1.036  0.1001E-01  0.2659E-01
      1.086  0.1002E-01  0.2710E-01
      1.137  0.1068E-01  0.2764E-01
      1.188  0.1162E-01  0.2823E-01
      1.239  0.1231E-01  0.2886E-01
      1.289  0.1243E-01  0.2949E-01
      1.340  0.1211E-01  0.3011E-01
      1.391  0.1173E-01  0.3070E-01
      1.442  0.1160E-01  0.3129E-01
      1.493  0.1174E-01  0.3189E-01
      1.543  0.1187E-01  0.3249E-01
      1.594  0.1170E-01  0.3308E-01
      1.645  0.1117E-01  0.3365E-01
      1.696  0.1051E-01  0.3419E-01
      1.747  0.9978E-02  0.3469E-01
      1.797  0.9640E-02  0.3518E-01
      1.848  0.9406E-02  0.3566E-01
      1.899  0.9243E-02  0.3613E-01
      1.950  0.9286E-02  0.3660E-01
      2.001  0.9757E-02  0.3710E-01
      2.051  0.1076E-01  0.3764E-01
      2.102  0.1215E-01  0.3826E-01
      2.153  0.1360E-01  0.3895E-01
      2.204  0.1474E-01  0.3970E-01
      2.255  0.1534E-01  0.4048E-01
      2.305  0.1537E-01  0.4126E-01
      2.356  0.1493E-01  0.4202E-01
      2.407  0.1406E-01  0.4273E-01
      2.458  0.1278E-01  0.4338E-01
      2.508  0.1120E-01  0.4395E-01
      2.559  0.9721E-02  0.4444E-01
      2.610  0.8958E-02  0.4490E-01
      2.661  0.9410E-02  0.4538E-01
      2.712  0.1109E-01  0.4594E-01
      2.762  0.1345E-01  0.4662E-01
      2.813  0.1571E-01  0.4742E-01
      2.864  0.1723E-01  0.4830E-01
      2.915  0.1771E-01  0.4920E-01
      2.966  0.1712E-01  0.5007E-01
      3.016  0.1556E-01  0.5086E-01
      3.067  0.1332E-01  0.5153E-01
      3.118  0.1097E-01  0.5209E-01
      3.169  0.9268E-02  0.5256E-01
      3.220  0.8890E-02  0.5301E-01
      3.270  0.9981E-02  0.5352E-01
      3.321  0.1202E-01  0.5413E-01
      3.372  0.1407E-01  0.5484E-01
      3.423  0.1524E-01  0.5562E-01
      3.474  0.1516E-01  0.5639E-01
      3.524  0.1409E-01  0.5710E-01
      3.575  0.1278E-01  0.5775E-01
      3.626  0.1202E-01  0.5836E-01
      3.677  0.1225E-01  0.5899E-01
      3.728  0.1321E-01  0.5966E-01
      3.778  0.1413E-01  0.6037E-01
      3.829  0.1423E-01  0.6110E-01
      3.880  0.1333E-01  0.6177E-01
      3.931  0.1199E-01  0.6238E-01
      3.981  0.1116E-01  0.6295E-01
      4.032  0.1141E-01  0.6353E-01
      4.083  0.1257E-01  0.6417E-01
      4.134  0.1383E-01  0.6487E-01
      4.185  0.1443E-01  0.6560E-01
      4.235  0.1408E-01  0.6632E-01
      4.286  0.1314E-01  0.6699E-01
      4.337  0.1223E-01  0.6761E-01
      4.388  0.1183E-01  0.6821E-01
      4.439  0.1205E-01  0.6882E-01
      4.489  0.1271E-01  0.6947E-01
      4.540  0.1346E-01  0.7015E-01
      4.591  0.1397E-01  0.7086E-01
      4.642  0.1397E-01  0.7157E-01
      4.693  0.1333E-01  0.7225E-01
      4.743  0.1211E-01  0.7286E-01
      4.794  0.1061E-01  0.7340E-01
      4.845  0.9393E-02  0.7388E-01
      4.896  0.9041E-02  0.7434E-01
      4.947  0.9863E-02  0.7484E-01
      4.997  0.1167E-01  0.7543E-01
      5.048  0.1385E-01  0.7613E-01
      5.099  0.1570E-01  0.7693E-01
      5.150  0.1677E-01  0.7778E-01
      5.200  0.1692E-01  0.7864E-01
      5.251  0.1624E-01  0.7947E-01
      5.302  0.1492E-01  0.8023E-01
      5.353  0.1325E-01  0.8090E-01
      5.404  0.1166E-01  0.8149E-01
      5.454  0.1051E-01  0.8202E-01
      5.505  0.9942E-02  0.8253E-01
      5.556  0.9801E-02  0.8303E-01
      5.607  0.9853E-02  0.8353E-01
      5.658  0.1002E-01  0.8404E-01
      5.708  0.1040E-01  0.8456E-01
      5.759  0.1110E-01  0.8513E-01
      5.810  0.1202E-01  0.8574E-01
      5.861  0.1291E-01  0.8639E-01
      5.912  0.1343E-01  0.8708E-01
      5.962  0.1334E-01  0.8775E-01
      6.013  0.1266E-01  0.8840E-01
      6.064  0.1156E-01  0.8898E-01
      6.115  0.1035E-01  0.8951E-01
      6.166  0.9310E-02  0.8998E-01
      6.216  0.8548E-02  0.9042E-01
      6.267  0.8034E-02  0.9083E-01
      6.318  0.7691E-02  0.9122E-01
      6.369  0.7510E-02  0.9160E-01
      6.419  0.7566E-02  0.9198E-01
      6.470  0.7926E-02  0.9238E-01
      6.521  0.8555E-02  0.9282E-01
      6.572  0.9309E-02  0.9329E-01
      6.623  0.9995E-02  0.9380E-01
      6.673  0.1044E-01  0.9433E-01
      6.724  0.1053E-01  0.9486E-01
      6.775  0.1023E-01  0.9538E-01
      6.826  0.9596E-02  0.9587E-01
      6.877  0.8758E-02  0.9632E-01
      6.927  0.7833E-02  0.9671E-01
      6.978  0.6890E-02  0.9706E-01
      7.029  0.5952E-02  0.9737E-01
      7.080  0.5049E-02  0.9762E-01
      7.131  0.4246E-02  0.9784E-01
      7.181  0.3605E-02  0.9802E-01
      7.232  0.3132E-02  0.9818E-01
      7.283  0.2770E-02  0.9832E-01
      7.334  0.2457E-02  0.9845E-01
      7.385  0.2203E-02  0.9856E-01
      7.435  0.2090E-02  0.9866E-01
      7.486  0.2188E-02  0.9878E-01
      7.537  0.2460E-02  0.9890E-01
      7.588  0.2752E-02  0.9904E-01
      7.639  0.2881E-02  0.9919E-01
      7.689  0.2744E-02  0.9933E-01
      7.740  0.2373E-02  0.9945E-01
      7.791  0.1889E-02  0.9954E-01
      7.842  0.1416E-02  0.9961E-01
      7.892  0.1026E-02  0.9967E-01
      7.943  0.7441E-03  0.9970E-01
      7.994  0.5681E-03  0.9973E-01
      8.045  0.4710E-03  0.9976E-01
      8.096  0.4053E-03  0.9978E-01
      8.146  0.3272E-03  0.9979E-01
      8.197  0.2328E-03  0.9981E-01
      8.248  0.1670E-03  0.9981E-01
      8.299  0.1891E-03  0.9982E-01
      8.350  0.3210E-03  0.9984E-01
      8.400  0.5166E-03  0.9987E-01
      8.451  0.6809E-03  0.9990E-01
      8.502  0.7260E-03  0.9994E-01
      8.553  0.6262E-03  0.9997E-01
      8.604  0.4295E-03  0.9999E-01
      8.654  0.2202E-03  0.1000E+00
      8.705  0.6483E-04  0.1000E+00
      8.756 -0.1573E-04  0.1000E+00
      8.807 -0.3831E-04  0.1000E+00
      8.858 -0.3206E-04  0.1000E+00
      8.908 -0.1901E-04  0.1000E+00
      8.959 -0.8965E-05  0.1000E+00
      9.010 -0.3509E-05  0.1000E+00
      9.061 -0.1163E-05  0.1000E+00
      9.111 -0.3298E-06  0.1000E+00
      9.162 -0.8065E-07  0.1000E+00
      9.213 -0.1708E-07  0.1000E+00
      9.264 -0.3141E-08  0.1000E+00
      9.315 -0.5029E-09  0.1000E+00
      9.365 -0.7023E-10  0.1000E+00
      9.416 -0.8564E-11  0.1000E+00
      9.467 -0.9129E-12  0.1000E+00
      9.518 -0.8512E-13  0.1000E+00
      9.569 -0.6948E-14  0.1000E+00
      9.619 -0.4968E-15  0.1000E+00
      9.670 -0.3088E-16  0.1000E+00
      9.721 -0.1910E-17  0.1000E+00
      9.772  0.0000E+00  0.1000E+00
      9.823  0.0000E+00  0.1000E+00
      9.873  0.0000E+00  0.1000E+00
      9.924  0.0000E+00  0.1000E+00
      9.975  0.0000E+00  0.1000E+00
     10.026  0.0000E+00  0.1000E+00
     10.077  0.0000E+00  0.1000E+00
     10.127  0.0000E+00  0.1000E+00
     10.178  0.0000E+00  0.1000E+00
     10.229  0.0000E+00  0.1000E+00
     10.280  0.0000E+00  0.1000E+00
     10.330  0.0000E+00  0.1000E+00
     10.381  0.0000E+00  0.1000E+00
     10.432  0.0000E+00  0.1000E+00
     10.483  0.0000E+00  0.1000E+00
