   2   2   0   0
  0.3925636E+02  0.4282000E-09  0.4282000E-09  0.4282000E-09  0.5000000E-15
   1.0000000000000000E-004
  CAR 
 unknown system                          
     10.91414768     -4.69121702  301      0.61117913      1.00000000
     -4.691  0.0000E+00  0.0000E+00
     -4.639  0.0000E+00  0.0000E+00
     -4.587  0.0000E+00  0.0000E+00
     -4.535  0.0000E+00  0.0000E+00
     -4.483  0.0000E+00  0.0000E+00
     -4.431  0.0000E+00  0.0000E+00
     -4.379  0.0000E+00  0.0000E+00
     -4.327 -0.3556E-32 -0.1850E-33
     -4.275 -0.2445E-30 -0.1290E-31
     -4.223 -0.1376E-28 -0.7289E-30
     -4.171 -0.6762E-27 -0.3590E-28
     -4.119 -0.2903E-25 -0.1546E-26
     -4.067 -0.1089E-23 -0.5821E-25
     -4.015 -0.3573E-22 -0.1917E-23
     -3.963 -0.1025E-20 -0.5521E-22
     -3.911 -0.2569E-19 -0.1392E-20
     -3.859 -0.5536E-18 -0.3019E-19
     -3.807 -0.1050E-16 -0.5761E-18
     -3.755 -0.1752E-15 -0.9692E-17
     -3.703 -0.2564E-14 -0.1430E-15
     -3.651 -0.3282E-13 -0.1850E-14
     -3.599 -0.3675E-12 -0.2097E-13
     -3.547 -0.3600E-11 -0.2082E-12
     -3.495 -0.3084E-10 -0.1812E-11
     -3.443 -0.2310E-09 -0.1383E-10
     -3.391 -0.1512E-08 -0.9246E-10
     -3.339 -0.8640E-08 -0.5419E-09
     -3.287 -0.4307E-07 -0.2782E-08
     -3.235 -0.1869E-06 -0.1251E-07
     -3.183 -0.7046E-06 -0.4916E-07
     -3.131 -0.2297E-05 -0.1687E-06
     -3.079 -0.6442E-05 -0.5038E-06
     -3.027 -0.1539E-04 -0.1304E-05
     -2.975 -0.3078E-04 -0.2905E-05
     -2.923 -0.4978E-04 -0.5495E-05
     -2.871 -0.5927E-04 -0.8578E-05
     -2.819 -0.3233E-04 -0.1026E-04
     -2.767  0.6671E-04 -0.6790E-05
     -2.715  0.2674E-03  0.7122E-05
     -2.663  0.5769E-03  0.3713E-04
     -2.611  0.9735E-03  0.8777E-04
     -2.558  0.1413E-02  0.1613E-03
     -2.506  0.1838E-02  0.2569E-03
     -2.454  0.2197E-02  0.3712E-03
     -2.402  0.2468E-02  0.4996E-03
     -2.350  0.2678E-02  0.6389E-03
     -2.298  0.2889E-02  0.7891E-03
     -2.246  0.3143E-02  0.9526E-03
     -2.194  0.3420E-02  0.1131E-02
     -2.142  0.3656E-02  0.1321E-02
     -2.090  0.3801E-02  0.1518E-02
     -2.038  0.3855E-02  0.1719E-02
     -1.986  0.3867E-02  0.1920E-02
     -1.934  0.3924E-02  0.2124E-02
     -1.882  0.4115E-02  0.2338E-02
     -1.830  0.4467E-02  0.2571E-02
     -1.778  0.4895E-02  0.2825E-02
     -1.726  0.5228E-02  0.3097E-02
     -1.674  0.5308E-02  0.3373E-02
     -1.622  0.5109E-02  0.3639E-02
     -1.570  0.4777E-02  0.3888E-02
     -1.518  0.4576E-02  0.4126E-02
     -1.466  0.4727E-02  0.4371E-02
     -1.414  0.5253E-02  0.4645E-02
     -1.362  0.5943E-02  0.4954E-02
     -1.310  0.6496E-02  0.5292E-02
     -1.258  0.6696E-02  0.5640E-02
     -1.206  0.6517E-02  0.5979E-02
     -1.154  0.6109E-02  0.6297E-02
     -1.102  0.5729E-02  0.6595E-02
     -1.050  0.5620E-02  0.6887E-02
     -0.998  0.5866E-02  0.7192E-02
     -0.946  0.6321E-02  0.7521E-02
     -0.894  0.6717E-02  0.7871E-02
     -0.842  0.6878E-02  0.8228E-02
     -0.790  0.6854E-02  0.8585E-02
     -0.738  0.6860E-02  0.8942E-02
     -0.686  0.7084E-02  0.9310E-02
     -0.634  0.7525E-02  0.9702E-02
     -0.582  0.7984E-02  0.1012E-01
     -0.530  0.8208E-02  0.1054E-01
     -0.478  0.8058E-02  0.1096E-01
     -0.426  0.7565E-02  0.1136E-01
     -0.374  0.6908E-02  0.1172E-01
     -0.322  0.6362E-02  0.1205E-01
     -0.270  0.6230E-02  0.1237E-01
     -0.218  0.6690E-02  0.1272E-01
     -0.166  0.7654E-02  0.1312E-01
     -0.114  0.8780E-02  0.1357E-01
     -0.062  0.9667E-02  0.1408E-01
     -0.010  0.1005E-01  0.1460E-01
      0.042  0.9885E-02  0.1511E-01
      0.094  0.9293E-02  0.1560E-01
      0.146  0.8540E-02  0.1604E-01
      0.198  0.7924E-02  0.1645E-01
      0.250  0.7653E-02  0.1685E-01
      0.302  0.7748E-02  0.1725E-01
      0.355  0.8055E-02  0.1767E-01
      0.407  0.8375E-02  0.1811E-01
      0.459  0.8630E-02  0.1856E-01
      0.511  0.8923E-02  0.1902E-01
      0.563  0.9407E-02  0.1951E-01
      0.615  0.1007E-01  0.2004E-01
      0.667  0.1066E-01  0.2059E-01
      0.719  0.1086E-01  0.2116E-01
      0.771  0.1053E-01  0.2170E-01
      0.823  0.9850E-02  0.2222E-01
      0.875  0.9279E-02  0.2270E-01
      0.927  0.9246E-02  0.2318E-01
      0.979  0.9840E-02  0.2369E-01
      1.031  0.1070E-01  0.2425E-01
      1.083  0.1125E-01  0.2483E-01
      1.135  0.1112E-01  0.2541E-01
      1.187  0.1044E-01  0.2595E-01
      1.239  0.9730E-02  0.2646E-01
      1.291  0.9553E-02  0.2696E-01
      1.343  0.1011E-01  0.2748E-01
      1.395  0.1109E-01  0.2806E-01
      1.447  0.1194E-01  0.2868E-01
      1.499  0.1221E-01  0.2932E-01
      1.551  0.1191E-01  0.2994E-01
      1.603  0.1139E-01  0.3053E-01
      1.655  0.1108E-01  0.3110E-01
      1.707  0.1111E-01  0.3168E-01
      1.759  0.1129E-01  0.3227E-01
      1.811  0.1126E-01  0.3286E-01
      1.863  0.1085E-01  0.3342E-01
      1.915  0.1022E-01  0.3395E-01
      1.967  0.9689E-02  0.3446E-01
      2.019  0.9374E-02  0.3494E-01
      2.071  0.9173E-02  0.3542E-01
      2.123  0.8940E-02  0.3588E-01
      2.175  0.8725E-02  0.3634E-01
      2.227  0.8785E-02  0.3680E-01
      2.279  0.9381E-02  0.3728E-01
      2.331  0.1056E-01  0.3783E-01
      2.383  0.1210E-01  0.3846E-01
      2.435  0.1358E-01  0.3917E-01
      2.487  0.1463E-01  0.3993E-01
      2.539  0.1506E-01  0.4071E-01
      2.591  0.1489E-01  0.4149E-01
      2.643  0.1426E-01  0.4223E-01
      2.695  0.1325E-01  0.4292E-01
      2.747  0.1189E-01  0.4354E-01
      2.799  0.1031E-01  0.4407E-01
      2.851  0.8924E-02  0.4454E-01
      2.903  0.8368E-02  0.4497E-01
      2.955  0.9097E-02  0.4545E-01
      3.007  0.1103E-01  0.4602E-01
      3.059  0.1354E-01  0.4672E-01
      3.111  0.1584E-01  0.4755E-01
      3.163  0.1731E-01  0.4845E-01
      3.216  0.1768E-01  0.4937E-01
      3.268  0.1687E-01  0.5025E-01
      3.320  0.1502E-01  0.5103E-01
      3.372  0.1250E-01  0.5168E-01
      3.424  0.9989E-02  0.5220E-01
      3.476  0.8359E-02  0.5263E-01
      3.528  0.8225E-02  0.5306E-01
      3.580  0.9575E-02  0.5356E-01
      3.632  0.1170E-01  0.5417E-01
      3.684  0.1358E-01  0.5487E-01
      3.736  0.1441E-01  0.5562E-01
      3.788  0.1398E-01  0.5635E-01
      3.840  0.1272E-01  0.5701E-01
      3.892  0.1145E-01  0.5761E-01
      3.944  0.1098E-01  0.5818E-01
      3.996  0.1169E-01  0.5879E-01
      4.048  0.1326E-01  0.5948E-01
      4.100  0.1473E-01  0.6024E-01
      4.152  0.1503E-01  0.6102E-01
      4.204  0.1372E-01  0.6174E-01
      4.256  0.1146E-01  0.6233E-01
      4.308  0.9584E-02  0.6283E-01
      4.360  0.9245E-02  0.6331E-01
      4.412  0.1062E-01  0.6387E-01
      4.464  0.1282E-01  0.6453E-01
      4.516  0.1450E-01  0.6529E-01
      4.568  0.1476E-01  0.6605E-01
      4.620  0.1370E-01  0.6677E-01
      4.672  0.1222E-01  0.6740E-01
      4.724  0.1128E-01  0.6799E-01
      4.776  0.1123E-01  0.6857E-01
      4.828  0.1179E-01  0.6919E-01
      4.880  0.1247E-01  0.6984E-01
      4.932  0.1290E-01  0.7051E-01
      4.984  0.1296E-01  0.7118E-01
      5.036  0.1261E-01  0.7184E-01
      5.088  0.1184E-01  0.7245E-01
      5.140  0.1074E-01  0.7301E-01
      5.192  0.9664E-02  0.7351E-01
      5.244  0.9107E-02  0.7399E-01
      5.296  0.9457E-02  0.7448E-01
      5.348  0.1073E-01  0.7504E-01
      5.400  0.1251E-01  0.7569E-01
      5.452  0.1423E-01  0.7643E-01
      5.504  0.1543E-01  0.7723E-01
      5.556  0.1596E-01  0.7806E-01
      5.608  0.1584E-01  0.7889E-01
      5.660  0.1514E-01  0.7967E-01
      5.712  0.1392E-01  0.8040E-01
      5.764  0.1238E-01  0.8104E-01
      5.816  0.1090E-01  0.8161E-01
      5.868  0.9861E-02  0.8212E-01
      5.920  0.9389E-02  0.8261E-01
      5.972  0.9327E-02  0.8309E-01
      6.024  0.9449E-02  0.8359E-01
      6.076  0.9706E-02  0.8409E-01
      6.129  0.1024E-01  0.8462E-01
      6.181  0.1115E-01  0.8520E-01
      6.233  0.1232E-01  0.8584E-01
      6.285  0.1331E-01  0.8654E-01
      6.337  0.1370E-01  0.8725E-01
      6.389  0.1327E-01  0.8794E-01
      6.441  0.1222E-01  0.8858E-01
      6.493  0.1101E-01  0.8915E-01
      6.545  0.1009E-01  0.8967E-01
      6.597  0.9603E-02  0.9017E-01
      6.649  0.9345E-02  0.9066E-01
      6.701  0.8986E-02  0.9113E-01
      6.753  0.8367E-02  0.9156E-01
      6.805  0.7671E-02  0.9196E-01
      6.857  0.7297E-02  0.9234E-01
      6.909  0.7571E-02  0.9273E-01
      6.961  0.8509E-02  0.9318E-01
      7.013  0.9795E-02  0.9369E-01
      7.065  0.1094E-01  0.9426E-01
      7.117  0.1152E-01  0.9485E-01
      7.169  0.1130E-01  0.9544E-01
      7.221  0.1036E-01  0.9598E-01
      7.273  0.8987E-02  0.9645E-01
      7.325  0.7585E-02  0.9684E-01
      7.377  0.6430E-02  0.9718E-01
      7.429  0.5588E-02  0.9747E-01
      7.481  0.4952E-02  0.9773E-01
      7.533  0.4392E-02  0.9795E-01
      7.585  0.3865E-02  0.9816E-01
      7.637  0.3421E-02  0.9833E-01
      7.689  0.3105E-02  0.9850E-01
      7.741  0.2872E-02  0.9864E-01
      7.793  0.2613E-02  0.9878E-01
      7.845  0.2259E-02  0.9890E-01
      7.897  0.1855E-02  0.9899E-01
      7.949  0.1528E-02  0.9907E-01
      8.001  0.1402E-02  0.9915E-01
      8.053  0.1498E-02  0.9922E-01
      8.105  0.1718E-02  0.9931E-01
      8.157  0.1897E-02  0.9941E-01
      8.209  0.1914E-02  0.9951E-01
      8.261  0.1754E-02  0.9960E-01
      8.313  0.1491E-02  0.9968E-01
      8.365  0.1209E-02  0.9974E-01
      8.417  0.9612E-03  0.9979E-01
      8.469  0.7648E-03  0.9983E-01
      8.521  0.6129E-03  0.9987E-01
      8.573  0.4838E-03  0.9989E-01
      8.625  0.3562E-03  0.9991E-01
      8.677  0.2329E-03  0.9992E-01
      8.729  0.1449E-03  0.9993E-01
      8.781  0.1243E-03  0.9994E-01
      8.833  0.1701E-03  0.9994E-01
      8.885  0.2414E-03  0.9996E-01
      8.937  0.2831E-03  0.9997E-01
      8.989  0.2634E-03  0.9999E-01
      9.042  0.1913E-03  0.1000E+00
      9.094  0.1029E-03  0.1000E+00
      9.146  0.3269E-04  0.1000E+00
      9.198 -0.5152E-05  0.1000E+00
      9.250 -0.1625E-04  0.1000E+00
      9.302 -0.1375E-04  0.1000E+00
      9.354 -0.8016E-05  0.1000E+00
      9.406 -0.3666E-05  0.1000E+00
      9.458 -0.1376E-05  0.1000E+00
      9.510 -0.4329E-06  0.1000E+00
      9.562 -0.1156E-06  0.1000E+00
      9.614 -0.2637E-07  0.1000E+00
      9.666 -0.5168E-08  0.1000E+00
      9.718 -0.8727E-09  0.1000E+00
      9.770 -0.1273E-09  0.1000E+00
      9.822 -0.1608E-10  0.1000E+00
      9.874 -0.1760E-11  0.1000E+00
      9.926 -0.1671E-12  0.1000E+00
      9.978 -0.1379E-13  0.1000E+00
     10.030 -0.9886E-15  0.1000E+00
     10.082 -0.6155E-16  0.1000E+00
     10.134 -0.3420E-17  0.1000E+00
     10.186 -0.3109E-18  0.1000E+00
     10.238  0.0000E+00  0.1000E+00
     10.290  0.0000E+00  0.1000E+00
     10.342  0.0000E+00  0.1000E+00
     10.394  0.0000E+00  0.1000E+00
     10.446  0.0000E+00  0.1000E+00
     10.498  0.0000E+00  0.1000E+00
     10.550  0.0000E+00  0.1000E+00
     10.602  0.0000E+00  0.1000E+00
     10.654  0.0000E+00  0.1000E+00
     10.706  0.0000E+00  0.1000E+00
     10.758  0.0000E+00  0.1000E+00
     10.810  0.0000E+00  0.1000E+00
     10.862  0.0000E+00  0.1000E+00
     10.914  0.0000E+00  0.1000E+00
