    2    2  100    1
  0.3925636E+02  0.4282000E-09  0.4282000E-09  0.4282000E-09  0.5000000E-15
   1.0000000000000000E-004
  CAR 
 unknown system                          
      2     84      5

  0.1262379E-14  0.1262379E-14  0.1262379E-14  0.4551661E-03
    1       -2.754792   1.000000
    2        4.830775  -0.000000
    3        4.830775  -0.000000
    4        5.097887  -0.000000
    5        5.097887  -0.000000

  0.7692308E-01  0.1262379E-14  0.1262379E-14  0.2730997E-02
    1       -2.705040   1.000000
    2        3.970419  -0.000000
    3        4.879154  -0.000000
    4        5.139920  -0.000000
    5        5.139920  -0.000000

  0.1538462E+00  0.1262379E-14  0.1262379E-14  0.2730997E-02
    1       -2.555963   1.000000
    2        2.984282  -0.000000
    3        5.024285  -0.000000
    4        5.266109  -0.000000
    5        5.266109  -0.000000

  0.2307692E+00  0.1262379E-14  0.1262379E-14  0.2730997E-02
    1       -2.308152   1.000000
    2        2.039931  -0.000000
    3        5.266155  -0.000000
    4        5.476674  -0.000000
    5        5.476674  -0.000000

  0.3076923E+00  0.1262379E-14  0.1262379E-14  0.2730997E-02
    1       -1.962619   1.000000
    2        1.161510  -0.000001
    3        5.604735  -0.000000
    4        5.771964  -0.000000
    5        5.771964  -0.000000

  0.3846154E+00  0.1262379E-14  0.1262379E-14  0.2730997E-02
    1       -1.520772   1.000000
    2        0.360507   0.720820
    3        6.039984   0.000000
    4        6.152424   0.000000
    5        6.152424   0.000000

  0.4615385E+00  0.1262379E-14  0.1262379E-14  0.2730997E-02
    1       -0.984511   1.000000
    2       -0.356334   1.000000
    3        6.571839   0.000000
    4        6.618556   0.000000
    5        6.618556   0.000000

  0.7692308E-01  0.7692308E-01  0.1262379E-14  0.5461994E-02
    1       -2.655311   1.000000
    2        3.868600  -0.000000
    3        4.217134  -0.000000
    4        5.181954  -0.000000
    5        5.509048  -0.000000

  0.1538462E+00  0.7692308E-01  0.1262379E-14  0.1092399E-01
    1       -2.506338   1.000000
    2        3.016220  -0.000000
    3        4.226176  -0.000000
    4        5.308136  -0.000000
    5        5.704639  -0.000000

  0.2307692E+00  0.7692308E-01  0.1262379E-14  0.1092399E-01
    1       -2.258694   1.000000
    2        2.082884  -0.000000
    3        4.443875  -0.000000
    4        5.518682  -0.000000
    5        5.952335   0.000000

  0.3076923E+00  0.7692308E-01  0.1262379E-14  0.1092399E-01
    1       -1.913393   1.000000
    2        1.207465  -0.000000
    3        4.759767  -0.000000
    4        5.813937  -0.000000
    5        6.286319   0.000000

  0.3846154E+00  0.7692308E-01  0.1262379E-14  0.1092399E-01
    1       -1.471855   1.000000
    2        0.407755   0.530024
    3        5.167665  -0.000000
    4        6.194335   0.000000
    5        6.928079   0.000000

  0.4615385E+00  0.7692308E-01  0.1262379E-14  0.1092399E-01
    1       -0.935992   1.000000
    2       -0.308335   1.000002
    3        5.665818  -0.000000
    4        6.253045   0.000000
    5        6.660367   0.000000

  0.1538462E+00  0.1538462E+00  0.1262379E-14  0.5461994E-02
    1       -2.357654   1.000000
    2        2.967388  -0.000000
    3        3.431508  -0.000000
    4        5.434288  -0.000000
    5        8.482867   0.000000

  0.2307692E+00  0.1538462E+00  0.1262379E-14  0.1092399E-01
    1       -2.110516   1.000000
    2        2.203226  -0.000000
    3        3.480533  -0.000000
    4        5.644771  -0.000000
    5        7.564208   0.000000

  0.3076923E+00  0.1538462E+00  0.1262379E-14  0.1092399E-01
    1       -1.765915   1.000000
    2        1.343800  -0.000000
    3        3.782493  -0.000000
    4        5.939897   0.000000
    5        6.584736   0.000000

  0.3846154E+00  0.1538462E+00  0.1262379E-14  0.1092399E-01
    1       -1.325317   1.000000
    2        0.548974   0.050815
    3        4.188753  -0.000000
    4        6.320070   0.000000
    5        7.023841   0.000000

  0.4615385E+00  0.1538462E+00  0.1262379E-14  0.1092399E-01
    1       -0.790671   1.000000
    2       -0.164640   1.000164
    3        4.688352  -0.000000
    4        5.278106  -0.000000
    5        6.785709   0.000000

  0.2307692E+00  0.2307692E+00  0.1262379E-14  0.5461994E-02
    1       -1.864211   1.000000
    2        2.246057  -0.000000
    3        2.725109  -0.000000
    4        5.855108  -0.000000
    5        6.644151   0.000000

  0.3076923E+00  0.2307692E+00  0.1262379E-14  0.1092399E-01
    1       -1.520813   1.000000
    2        1.560627  -0.000000
    3        2.857357  -0.000000
    4        5.796128  -0.000000
    5        6.149946   0.000000

  0.3846154E+00  0.2307692E+00  0.1262379E-14  0.1092399E-01
    1       -1.081806   1.000000
    2        0.781953  -0.013105
    3        3.253028  -0.000000
    4        5.028839  -0.000000
    5        6.529574   0.000000

  0.4615385E+00  0.2307692E+00  0.1262379E-14  0.1092399E-01
    1       -0.549288   1.000000
    2        0.073719   1.018300
    3        3.753577  -0.000000
    4        6.994189   0.000000
    5        7.839249   0.000000

  0.3076923E+00  0.3076923E+00  0.1262379E-14  0.5461994E-02
    1       -1.179135   1.000000
    2        1.705594  -0.000000
    3        2.164968  -0.000000
    4        6.444185   0.000000
    5        7.229132   0.000000

  0.3846154E+00  0.3076923E+00  0.1262379E-14  0.1092399E-01
    1       -0.742487   1.000000
    2        1.097194  -0.000008
    3        2.397199  -0.000000
    4        6.822594   0.000000
    5        7.666314   0.000000

  0.4615385E+00  0.3076923E+00  0.1262379E-14  0.1092399E-01
    1       -0.213280   1.000042
    2        0.404194   0.545040
    3        2.889998  -0.000000
    4        3.485544  -0.000000
    5        7.284614   0.000000

  0.3846154E+00  0.3846154E+00  0.1262379E-14  0.5461994E-02
    1       -0.309245   1.000002
    2        1.345652  -0.000000
    3        1.780251  -0.000000
    4        3.395282  -0.000000
    5        7.198198   0.000000

  0.4615385E+00  0.3846154E+00  0.1262379E-14  0.1092399E-01
    1        0.214393   1.025365
    2        0.817424  -0.007668
    3        2.116537  -0.000000
    4        2.706149  -0.000000
    5        7.652973   0.000000

  0.4615385E+00  0.4615385E+00  0.1262379E-14  0.5461994E-02
    1        0.723882  -0.025603
    2        1.165805  -0.000001
    3        1.584939  -0.000000
    4        2.022336  -0.000000
    5        8.080706   0.000000

  0.7692308E-01  0.7692308E-01  0.7692308E-01  0.3641329E-02
    1       -2.605621   1.000000
    2        3.914043  -0.000000
    3        3.914044  -0.000000
    4        4.699781  -0.000000
    5        6.288986   0.000000

  0.1538462E+00  0.7692308E-01  0.7692308E-01  0.1092399E-01
    1       -2.456745   1.000000
    2        3.050241  -0.000000
    3        4.050357  -0.000000
    4        4.707996  -0.000000
    5        6.424022   0.000000

  0.2307692E+00  0.7692308E-01  0.7692308E-01  0.1092399E-01
    1       -2.209269   1.000000
    2        2.125860  -0.000000
    3        4.277496  -0.000000
    4        4.909530  -0.000000
    5        6.649358   0.000000

  0.3076923E+00  0.7692308E-01  0.7692308E-01  0.1092399E-01
    1       -1.864200   1.000000
    2        1.253356  -0.000000
    3        4.595383  -0.000000
    4        5.215504  -0.000000
    5        6.965388   0.000000

  0.3846154E+00  0.7692308E-01  0.7692308E-01  0.1092399E-01
    1       -1.422975   1.000000
    2        0.454947   0.334079
    3        5.003911  -0.000000
    4        5.613008  -0.000000
    5        6.771524   0.000000

  0.4615385E+00  0.7692308E-01  0.7692308E-01  0.1092399E-01
    1       -0.887513   1.000000
    2       -0.260383   1.000010
    3        5.502936  -0.000000
    4        6.092248   0.000000
    5        6.097593   0.000000

  0.1538462E+00  0.1538462E+00  0.7692308E-01  0.1092399E-01
    1       -2.308158   1.000000
    2        3.012557  -0.000000
    3        3.422083  -0.000000
    4        4.647847  -0.000000
    5        6.831938   0.000000

  0.2307692E+00  0.1538462E+00  0.7692308E-01  0.2184797E-01
    1       -2.061190   1.000000
    2        2.246511  -0.000000
    3        3.495467  -0.000000
    4        4.844422  -0.000000
    5        7.103998   0.000000

  0.3076923E+00  0.1538462E+00  0.7692308E-01  0.2184797E-01
    1       -1.716828   1.000000
    2        1.389502  -0.000000
    3        3.800115  -0.000000
    4        5.151598  -0.000000
    5        6.735808   0.000000

  0.3846154E+00  0.1538462E+00  0.7692308E-01  0.2184797E-01
    1       -1.276547   1.000000
    2        0.595997  -0.012373
    3        4.206339  -0.000000
    4        5.552133  -0.000000
    5        5.972109   0.000000

  0.4615385E+00  0.1538462E+00  0.7692308E-01  0.2184797E-01
    1       -0.742312   1.000000
    2       -0.116828   1.000554
    3        4.705322  -0.000000
    4        5.294510  -0.000000
    5        6.040722   0.000000

  0.2307692E+00  0.2307692E+00  0.7692308E-01  0.1092399E-01
    1       -1.815055   1.000000
    2        2.291088  -0.000000
    3        2.759426  -0.000000
    4        5.041297  -0.000000
    5        6.675315   0.000000

  0.3076923E+00  0.2307692E+00  0.7692308E-01  0.2184797E-01
    1       -1.471903   1.000000
    2        1.606013  -0.000000
    3        2.896112  -0.000000
    4        5.347737  -0.000000
    5        5.830787  -0.000000

  0.3846154E+00  0.2307692E+00  0.7692308E-01  0.2184797E-01
    1       -1.033222   1.000000
    2        0.828667  -0.006355
    3        3.291788  -0.000000
    4        5.065030  -0.000000
    5        5.746850  -0.000000

  0.4615385E+00  0.2307692E+00  0.7692308E-01  0.2184797E-01
    1       -0.501137   1.000000
    2        0.121284   1.029058
    3        3.791689  -0.000000
    4        4.384121  -0.000000
    5        6.233173   0.000000

  0.3076923E+00  0.3076923E+00  0.7692308E-01  0.1092399E-01
    1       -1.130480   1.000000
    2        1.750538  -0.000000
    3        2.208982  -0.000000
    4        4.983272  -0.000000
    5        5.652063  -0.000000

  0.3846154E+00  0.3076923E+00  0.7692308E-01  0.2184797E-01
    1       -0.694180   1.000000
    2        1.143358  -0.000002
    3        2.441452  -0.000000
    4        4.213316  -0.000000
    5        6.047676   0.000000

  0.4615385E+00  0.3076923E+00  0.7692308E-01  0.2184797E-01
    1       -0.165441   1.000160
    2        0.451373   0.348301
    3        2.933575  -0.000000
    4        3.528235  -0.000000
    5        6.528012   0.000000

  0.3846154E+00  0.3846154E+00  0.7692308E-01  0.1092399E-01
    1       -0.261322   1.000009
    2        1.390542  -0.000000
    3        1.827368  -0.000000
    4        3.438956  -0.000000
    5        6.436880   0.000000

  0.4615385E+00  0.3846154E+00  0.7692308E-01  0.2184797E-01
    1        0.261770   0.980666
    2        0.863931  -0.003345
    3        2.162498  -0.000000
    4        2.751097  -0.000000
    5        6.903754   0.000000

  0.4615385E+00  0.4615385E+00  0.7692308E-01  0.1092399E-01
    1        0.770492  -0.015284
    2        1.210668  -0.000000
    3        1.633109  -0.000000
    4        2.068713  -0.000000
    5        7.328987   0.000000

  0.1538462E+00  0.1538462E+00  0.1538462E+00  0.3641329E-02
    1       -2.159881   1.000000
    2        3.148075  -0.000000
    3        3.148075  -0.000000
    4        4.048524  -0.000000
    5        8.434307   0.000000

  0.2307692E+00  0.1538462E+00  0.1538462E+00  0.1092399E-01
    1       -1.913413   1.000000
    2        2.369531  -0.000000
    3        3.373984  -0.000000
    4        4.103094  -0.000000
    5        7.489372   0.000000

  0.3076923E+00  0.1538462E+00  0.1538462E+00  0.1092399E-01
    1       -1.569776   1.000000
    2        1.525109  -0.000000
    3        3.690347  -0.000000
    4        4.389125  -0.000000
    5        6.630828   0.000000

  0.3846154E+00  0.1538462E+00  0.1538462E+00  0.1092399E-01
    1       -1.130450   1.000000
    2        0.736523  -0.022681
    3        4.097239  -0.000000
    4        4.790108  -0.000000
    5        6.518987   0.000000

  0.4615385E+00  0.1538462E+00  0.1538462E+00  0.1092399E-01
    1       -0.597477   1.000000
    2        0.026301   1.009576
    3        4.594740  -0.000000
    4        5.284909  -0.000000
    5        5.864215  -0.000000

  0.2307692E+00  0.2307692E+00  0.1538462E+00  0.1092399E-01
    1       -1.667794   1.000000
    2        2.426203  -0.000000
    3        2.829823  -0.000000
    4        4.093304  -0.000000
    5        6.751152   0.000000

  0.3076923E+00  0.2307692E+00  0.1538462E+00  0.2184797E-01
    1       -1.325383   1.000000
    2        1.740917  -0.000000
    3        2.994924  -0.000000
    4        4.374379  -0.000000
    5        5.919968   0.000000

  0.3846154E+00  0.2307692E+00  0.1538462E+00  0.2184797E-01
    1       -0.887698   1.000000
    2        0.968262  -0.000324
    3        3.392075  -0.000000
    4        4.773221  -0.000000
    5        5.158020  -0.000000

  0.4615385E+00  0.2307692E+00  0.1538462E+00  0.2184797E-01
    1       -0.356936   1.000000
    2        0.263656   0.977918
    3        3.890113  -0.000000
    4        4.479917  -0.000000
    5        5.265807  -0.000000

  0.3076923E+00  0.3076923E+00  0.1538462E+00  0.1092399E-01
    1       -0.984733   1.000000
    2        1.885397  -0.000000
    3        2.334970  -0.000000
    4        4.654149  -0.000000
    5        5.096568  -0.000000

  0.3846154E+00  0.3076923E+00  0.1538462E+00  0.2184797E-01
    1       -0.549497   1.000000
    2        1.281366  -0.000000
    3        2.570657  -0.000000
    4        4.334019  -0.000000
    5        5.048946  -0.000000

  0.4615385E+00  0.3076923E+00  0.1538462E+00  0.2184797E-01
    1       -0.022193   1.004201
    2        0.592572  -0.009370
    3        3.060977  -0.000000
    4        3.652887  -0.000000
    5        5.534365  -0.000000

  0.3846154E+00  0.3846154E+00  0.1538462E+00  0.1092399E-01
    1       -0.117809   1.000541
    2        1.525242  -0.000000
    3        1.966616  -0.000000
    4        3.568130  -0.000000
    5        5.436255  -0.000000

  0.4615385E+00  0.3846154E+00  0.1538462E+00  0.2184797E-01
    1        0.403614   0.547481
    2        1.003138  -0.000129
    3        2.299029  -0.000000
    4        2.884540  -0.000000
    5        5.906047   0.000000

  0.4615385E+00  0.4615385E+00  0.1538462E+00  0.1092399E-01
    1        0.910039  -0.001289
    2        1.345291  -0.000000
    3        1.776350  -0.000000
    4        2.206886  -0.000000
    5        6.328695   0.000000

  0.2307692E+00  0.2307692E+00  0.2307692E+00  0.3641329E-02
    1       -1.423055   1.000000
    2        2.651469  -0.000000
    3        2.651469  -0.000000
    4        3.549477  -0.000000
    5        6.761465   0.000000

  0.3076923E+00  0.2307692E+00  0.2307692E+00  0.1092399E-01
    1       -1.081898   1.000000
    2        1.957147  -0.000000
    3        2.967004  -0.000000
    4        3.691852  -0.000000
    5        6.401583   0.000000

  0.3846154E+00  0.2307692E+00  0.2307692E+00  0.1092399E-01
    1       -0.645932   1.000000
    2        1.198420  -0.000000
    3        3.372955  -0.000000
    4        4.071868  -0.000000
    5        5.776093  -0.000000

  0.4615385E+00  0.2307692E+00  0.2307692E+00  0.1092399E-01
    1       -0.117491   1.000546
    2        0.499705   0.174295
    3        3.869478  -0.000000
    4        4.563821  -0.000000
    5        5.140196  -0.000000

  0.3076923E+00  0.3076923E+00  0.2307692E+00  0.1092399E-01
    1       -0.742581   1.000000
    2        2.110261  -0.000000
    3        2.503471  -0.000000
    4        3.769117  -0.000000
    5        5.258846  -0.000000

  0.3846154E+00  0.3076923E+00  0.2307692E+00  0.2184797E-01
    1       -0.309169   1.000002
    2        1.509201  -0.000000
    3        2.763000  -0.000000
    4        4.140855  -0.000000
    5        4.513977  -0.000000

  0.4615385E+00  0.3076923E+00  0.2307692E+00  0.2184797E-01
    1        0.215599   1.024737
    2        0.826616  -0.006581
    3        3.252072  -0.000000
    4        3.839549  -0.000000
    5        4.624810  -0.000000

  0.3846154E+00  0.3846154E+00  0.2307692E+00  0.1092399E-01
    1        0.120490   1.028888
    2        1.749849  -0.000000
    3        2.188710  -0.000000
    4        3.775080  -0.000000
    5        4.505235  -0.000000

  0.4615385E+00  0.3846154E+00  0.2307692E+00  0.2184797E-01
    1        0.639008  -0.033547
    2        1.233963  -0.000000
    3        2.520357  -0.000000
    4        3.100637  -0.000000
    5        4.972552  -0.000000

  0.4615385E+00  0.4615385E+00  0.2307692E+00  0.1092399E-01
    1        1.141605  -0.000002
    2        1.569774  -0.000000
    3        2.010025  -0.000000
    4        2.433239  -0.000000
    5        5.390477  -0.000000

  0.3076923E+00  0.3076923E+00  0.3076923E+00  0.3641329E-02
    1       -0.405215   1.000000
    2        2.425262  -0.000000
    3        2.425262  -0.000000
    4        3.302367  -0.000000
    5        5.357984  -0.000000

  0.3846154E+00  0.3076923E+00  0.3076923E+00  0.1092399E-01
    1        0.025458   1.009452
    2        1.818286  -0.000000
    3        2.830570  -0.000000
    4        3.537211  -0.000000
    5        5.090755  -0.000000

  0.4615385E+00  0.3076923E+00  0.3076923E+00  0.1092399E-01
    1        0.546230   0.056095
    2        1.150595  -0.000001
    3        3.326389  -0.000000
    4        4.000204  -0.000000
    5        4.548714  -0.000000

  0.3846154E+00  0.3846154E+00  0.3076923E+00  0.1092399E-01
    1        0.452062   0.345546
    2        2.064513  -0.000000
    3        2.452787  -0.000000
    4        3.702620  -0.000000
    5        4.033349  -0.000000

  0.4615385E+00  0.3846154E+00  0.3076923E+00  0.2184797E-01
    1        0.966103  -0.000342
    2        1.553797  -0.000000
    3        2.803566  -0.000000
    4        3.378098  -0.000000
    5        4.146347  -0.000000

  0.4615385E+00  0.4615385E+00  0.3076923E+00  0.1092399E-01
    1        1.463313  -0.000000
    2        1.884272  -0.000000
    3        2.321890  -0.000000
    4        2.737999  -0.000000
    5        4.541314  -0.000000

  0.3846154E+00  0.3846154E+00  0.3846154E+00  0.3641329E-02
    1        0.874182  -0.002736
    2        2.469420  -0.000000
    3        2.469420  -0.000000
    4        3.315900  -0.000000
    5        4.227521  -0.000000

  0.4615385E+00  0.3846154E+00  0.3846154E+00  0.1092399E-01
    1        1.380950  -0.000000
    2        1.953324  -0.000000
    3        2.964778  -0.000000
    4        3.613287  -0.000000
    5        4.047561  -0.000000

  0.4615385E+00  0.4615385E+00  0.3846154E+00  0.1092399E-01
    1        1.870939  -0.000000
    2        2.288985  -0.000000
    3        2.669517  -0.000000
    4        3.090493  -0.000000
    5        3.809267  -0.000000

  0.4615385E+00  0.4615385E+00  0.4615385E+00  0.3641329E-02
    1        2.349766  -0.000000
    2        2.784114  -0.000000
    3        2.784114  -0.000000
    4        3.369869  -0.000000
    5        3.396231  -0.000000
