    2    2  100    1
  0.3925636E+02  0.4282000E-09  0.4282000E-09  0.4282000E-09  0.5000000E-15
   1.0000000000000000E-004
  CAR 
 unknown system                          
      2     84      5

  0.1262379E-14  0.1262379E-14  0.1262379E-14  0.4551661E-03
    1       -2.691217   1.000000
    2        5.127702  -0.000000
    3        5.127702  -0.000000
    4        5.503314  -0.000000
    5        5.503314  -0.000000

  0.7692308E-01  0.1262379E-14  0.1262379E-14  0.2730997E-02
    1       -2.639249   1.000000
    2        4.283349  -0.000000
    3        5.178166  -0.000000
    4        5.546538  -0.000000
    5        5.546538  -0.000000

  0.1538462E+00  0.1262379E-14  0.1262379E-14  0.2730997E-02
    1       -2.483555   1.000000
    2        3.270796  -0.000000
    3        5.329553  -0.000000
    4        5.676325  -0.000000
    5        5.676325  -0.000000

  0.2307692E+00  0.1262379E-14  0.1262379E-14  0.2730997E-02
    1       -2.224825   1.000000
    2        2.295846  -0.000000
    3        5.581848  -0.000000
    4        5.892945  -0.000000
    5        5.892945  -0.000000

  0.3076923E+00  0.1262379E-14  0.1262379E-14  0.2730997E-02
    1       -1.864227   1.000000
    2        1.386097  -0.000000
    3        5.935021  -0.000000
    4        6.196837   0.000000
    5        6.196837   0.000000

  0.3846154E+00  0.1262379E-14  0.1262379E-14  0.2730997E-02
    1       -1.403405   1.000000
    2        0.554688   0.728789
    3        6.389029   0.000000
    4        6.588586   0.000000
    5        6.588586   0.000000

  0.4615385E+00  0.1262379E-14  0.1262379E-14  0.2730997E-02
    1       -0.844565   1.000000
    2       -0.190604   1.000000
    3        6.943806   0.000000
    4        7.068824   0.000000
    5        7.068824   0.000000

  0.7692308E-01  0.7692308E-01  0.1262379E-14  0.5461994E-02
    1       -2.587309   1.000000
    2        4.172335  -0.000000
    3        4.548034  -0.000000
    4        5.589762  -0.000000
    5        5.893818  -0.000000

  0.1538462E+00  0.7692308E-01  0.1262379E-14  0.1092399E-01
    1       -2.431736   1.000000
    2        3.301978  -0.000000
    3        4.556241  -0.000000
    4        5.719532  -0.000000
    5        6.097244   0.000000

  0.2307692E+00  0.7692308E-01  0.1262379E-14  0.1092399E-01
    1       -2.173198   1.000000
    2        2.339824  -0.000000
    3        4.781801  -0.000000
    4        5.936115  -0.000000
    5        6.353886   0.000000

  0.3076923E+00  0.7692308E-01  0.1262379E-14  0.1092399E-01
    1       -1.812869   1.000000
    2        1.433621  -0.000000
    3        5.110017  -0.000000
    4        6.239946   0.000000
    5        6.699566   0.000000

  0.3846154E+00  0.7692308E-01  0.1262379E-14  0.1092399E-01
    1       -1.352405   1.000000
    2        0.603739   0.531458
    3        5.533991  -0.000000
    4        6.631588   0.000000
    5        7.138754   0.000000

  0.4615385E+00  0.7692308E-01  0.1262379E-14  0.1092399E-01
    1       -0.794027   1.000000
    2       -0.140673   1.000001
    3        6.051755  -0.000000
    4        6.662001   0.000000
    5        7.111659   0.000000

  0.1538462E+00  0.1538462E+00  0.1262379E-14  0.5461994E-02
    1       -2.276497   1.000000
    2        3.241082  -0.000000
    3        3.754868  -0.000000
    4        5.849241  -0.000000
    5        6.369914   0.000000

  0.2307692E+00  0.1538462E+00  0.1262379E-14  0.1092399E-01
    1       -2.018544   1.000000
    2        2.461675  -0.000000
    3        3.797666  -0.000000
    4        6.065701  -0.000000
    5        6.657178   0.000000

  0.3076923E+00  0.1538462E+00  0.1262379E-14  0.1092399E-01
    1       -1.659029   1.000000
    2        1.574356  -0.000000
    3        4.108382  -0.000000
    4        6.369316   0.000000
    5        7.024388   0.000000

  0.3846154E+00  0.1538462E+00  0.1262379E-14  0.1092399E-01
    1       -1.199653   1.000000
    2        0.750267   0.041729
    3        4.529056  -0.000000
    4        6.760584   0.000000
    5        7.481941   0.000000

  0.4615385E+00  0.1538462E+00  0.1262379E-14  0.1092399E-01
    1       -0.642689   1.000000
    2        0.008767   1.000087
    3        5.047024  -0.000000
    4        5.658643  -0.000000
    5        7.240023   0.000000

  0.2307692E+00  0.2307692E+00  0.1262379E-14  0.5461994E-02
    1       -1.761556   1.000000
    2        2.494478  -0.000000
    3        3.030678  -0.000000
    4        6.281913   0.000000
    5        7.077043   0.000000

  0.3076923E+00  0.2307692E+00  0.1262379E-14  0.1092399E-01
    1       -1.403435   1.000000
    2        1.796481  -0.000000
    3        3.156474  -0.000000
    4        6.198807   0.000000
    5        6.585058   0.000000

  0.3846154E+00  0.2307692E+00  0.1262379E-14  0.1092399E-01
    1       -0.945905   1.000000
    2        0.991615  -0.010824
    3        3.563754  -0.000000
    4        5.403728  -0.000000
    5        6.975470   0.000000

  0.4615385E+00  0.2307692E+00  0.1262379E-14  0.1092399E-01
    1       -0.391417   1.000000
    2        0.256486   1.015472
    3        4.081980  -0.000000
    4        7.453339   0.000000
    5        8.340285   0.000000

  0.3076923E+00  0.3076923E+00  0.1262379E-14  0.5461994E-02
    1       -1.047307   1.000000
    2        1.934966  -0.000000
    3        2.452007  -0.000000
    4        6.887267   0.000000
    5        7.706585   0.000000

  0.3846154E+00  0.3076923E+00  0.1262379E-14  0.1092399E-01
    1       -0.592525   1.000000
    2        1.316377  -0.000004
    3        2.680481  -0.000000
    4        7.275838   0.000000
    5        8.163737   0.000000

  0.4615385E+00  0.3076923E+00  0.1262379E-14  0.1092399E-01
    1       -0.041909   1.000020
    2        0.599450   0.549535
    3        3.188706  -0.000000
    4        3.805546  -0.000000
    5        7.749897   0.000000

  0.3846154E+00  0.3846154E+00  0.1262379E-14  0.5461994E-02
    1       -0.141721   1.000001
    2        1.562350  -0.000000
    3        2.052911  -0.000000
    4        3.712313  -0.000000
    5        7.660319   0.000000

  0.4615385E+00  0.3846154E+00  0.1262379E-14  0.1092399E-01
    1        0.402309   1.029139
    2        1.026398  -0.006204
    3        2.389378  -0.000000
    4        2.998395  -0.000000
    5        8.124134   0.000000

  0.4615385E+00  0.4615385E+00  0.1262379E-14  0.5461994E-02
    1        0.929415  -0.023474
    2        1.376182  -0.000000
    3        1.849875  -0.000000
    4        2.291560  -0.000000
    5        8.551578   0.000000

  0.7692308E-01  0.7692308E-01  0.7692308E-01  0.3641329E-02
    1       -2.535414   1.000000
    2        4.219581  -0.000000
    3        4.219581  -0.000000
    4        5.112331  -0.000000
    5        6.696535   0.000000

  0.1538462E+00  0.7692308E-01  0.7692308E-01  0.1092399E-01
    1       -2.379952   1.000000
    2        3.335826  -0.000000
    3        4.361298  -0.000000
    4        5.117434  -0.000000
    5        6.836036   0.000000

  0.2307692E+00  0.7692308E-01  0.7692308E-01  0.1092399E-01
    1       -2.121609   1.000000
    2        2.383852  -0.000000
    3        4.597427  -0.000000
    4        5.322937  -0.000000
    5        7.068894   0.000000

  0.3076923E+00  0.7692308E-01  0.7692308E-01  0.1092399E-01
    1       -1.761550   1.000000
    2        1.481073  -0.000000
    3        4.927869  -0.000000
    4        5.637812  -0.000000
    5        7.395613   0.000000

  0.3846154E+00  0.7692308E-01  0.7692308E-01  0.1092399E-01
    1       -1.301448   1.000000
    2        0.652725   0.328340
    3        5.352488  -0.000000
    4        6.047602  -0.000000
    5        7.189244   0.000000

  0.4615385E+00  0.7692308E-01  0.7692308E-01  0.1092399E-01
    1       -0.743536   1.000000
    2       -0.090796   1.000004
    3        5.871108  -0.000000
    4        6.483483   0.000000
    5        6.547314   0.000000

  0.1538462E+00  0.1538462E+00  0.7692308E-01  0.1092399E-01
    1       -2.224828   1.000000
    2        3.287936  -0.000000
    3        3.735014  -0.000000
    4        5.046148  -0.000000
    5        7.267572   0.000000

  0.2307692E+00  0.1538462E+00  0.7692308E-01  0.2184797E-01
    1       -1.967072   1.000000
    2        2.506171  -0.000000
    3        3.807104  -0.000000
    4        5.244442  -0.000000
    5        7.552441   0.000000

  0.3076923E+00  0.1538462E+00  0.7692308E-01  0.2184797E-01
    1       -1.607834   1.000000
    2        1.621597  -0.000000
    3        4.121452  -0.000000
    4        5.560525  -0.000000
    5        7.165789   0.000000

  0.3846154E+00  0.1538462E+00  0.7692308E-01  0.2184797E-01
    1       -1.148824   1.000000
    2        0.799054  -0.017638
    3        4.542303  -0.000000
    4        5.973982  -0.000000
    5        6.373670   0.000000

  0.4615385E+00  0.1538462E+00  0.7692308E-01  0.2184797E-01
    1       -0.592339   1.000000
    2        0.058480   1.000330
    3        5.059707  -0.000000
    4        5.670815  -0.000000
    5        6.478454   0.000000

  0.2307692E+00  0.2307692E+00  0.7692308E-01  0.1092399E-01
    1       -1.710279   1.000000
    2        2.541144  -0.000000
    3        3.063445  -0.000000
    4        5.442925  -0.000000
    5        7.107051   0.000000

  0.3076923E+00  0.2307692E+00  0.7692308E-01  0.2184797E-01
    1       -1.352444   1.000000
    2        1.843392  -0.000000
    3        3.194945  -0.000000
    4        5.758225  -0.000000
    5        6.232877   0.000000

  0.3846154E+00  0.2307692E+00  0.7692308E-01  0.2184797E-01
    1       -0.895293   1.000000
    2        1.040043  -0.004879
    3        3.602400  -0.000000
    4        5.439536  -0.000000
    5        6.170101   0.000000

  0.4615385E+00  0.2307692E+00  0.7692308E-01  0.2184797E-01
    1       -0.341311   1.000000
    2        0.305909   1.026463
    3        4.119934  -0.000000
    4        4.733857  -0.000000
    5        6.671918   0.000000

  0.3076923E+00  0.3076923E+00  0.7692308E-01  0.1092399E-01
    1       -0.996614   1.000000
    2        1.981520  -0.000000
    3        2.496762  -0.000000
    4        5.356292  -0.000000
    5        6.071004   0.000000

  0.3846154E+00  0.3076923E+00  0.7692308E-01  0.2184797E-01
    1       -0.542238   1.000000
    2        1.364174  -0.000001
    3        2.725804  -0.000000
    4        4.558911  -0.000000
    5        6.478591   0.000000

  0.4615385E+00  0.3076923E+00  0.7692308E-01  0.2184797E-01
    1        0.007832   1.000085
    2        0.648420   0.345410
    3        3.233295  -0.000000
    4        3.849114  -0.000000
    5        6.972972   0.000000

  0.3846154E+00  0.3846154E+00  0.7692308E-01  0.1092399E-01
    1       -0.091883   1.000004
    2        1.608834  -0.000000
    3        2.101504  -0.000000
    4        3.757091  -0.000000
    5        6.878199   0.000000

  0.4615385E+00  0.3846154E+00  0.7692308E-01  0.2184797E-01
    1        0.451507   0.989627
    2        1.074587  -0.002521
    3        2.436835  -0.000000
    4        3.044680  -0.000000
    5        7.355695   0.000000

  0.4615385E+00  0.4615385E+00  0.7692308E-01  0.1092399E-01
    1        0.977722  -0.013206
    2        1.422631  -0.000000
    3        1.899763  -0.000000
    4        2.339539  -0.000000
    5        7.782169   0.000000

  0.1538462E+00  0.1538462E+00  0.1538462E+00  0.3641329E-02
    1       -2.070062   1.000000
    2        3.428516  -0.000000
    3        3.428516  -0.000000
    4        4.451747  -0.000000
    5        8.914148   0.000000

  0.2307692E+00  0.1538462E+00  0.1538462E+00  0.1092399E-01
    1       -1.812884   1.000000
    2        2.631738  -0.000000
    3        3.662869  -0.000000
    4        4.499654  -0.000000
    5        7.933584   0.000000

  0.3076923E+00  0.1538462E+00  0.1538462E+00  0.1092399E-01
    1       -1.454487   1.000000
    2        1.761536  -0.000000
    3        3.991073  -0.000000
    4        4.790461  -0.000000
    5        7.042479   0.000000

  0.3846154E+00  0.1538462E+00  0.1538462E+00  0.1092399E-01
    1       -0.996587   1.000000
    2        0.944772  -0.019964
    3        4.413219  -0.000000
    4        5.203131  -0.000000
    5        6.983606   0.000000

  0.4615385E+00  0.1538462E+00  0.1538462E+00  0.1092399E-01
    1       -0.441569   1.000000
    2        0.207249   1.007499
    3        4.929422  -0.000000
    4        5.713439  -0.000000
    5        6.310482   0.000000

  0.2307692E+00  0.2307692E+00  0.1538462E+00  0.1092399E-01
    1       -1.556695   1.000000
    2        2.681175  -0.000000
    3        3.122930  -0.000000
    4        4.475900  -0.000000
    5        7.177519   0.000000

  0.3076923E+00  0.2307692E+00  0.1538462E+00  0.2184797E-01
    1       -1.199717   1.000000
    2        1.982670  -0.000000
    3        3.289301  -0.000000
    4        4.759659  -0.000000
    5        6.318158   0.000000

  0.3846154E+00  0.2307692E+00  0.1538462E+00  0.2184797E-01
    1       -0.743730   1.000000
    2        1.184681  -0.000192
    3        3.699227  -0.000000
    4        5.169879  -0.000000
    5        5.528821  -0.000000

  0.4615385E+00  0.2307692E+00  0.1538462E+00  0.2184797E-01
    1       -0.191285   1.000000
    2        0.453796   0.986624
    3        4.214935  -0.000000
    4        4.826084  -0.000000
    5        5.677848  -0.000000

  0.3076923E+00  0.3076923E+00  0.1538462E+00  0.1092399E-01
    1       -0.844790   1.000000
    2        2.121216  -0.000000
    3        2.623574  -0.000000
    4        5.041869  -0.000000
    5        5.469715  -0.000000

  0.3846154E+00  0.3076923E+00  0.1538462E+00  0.2184797E-01
    1       -0.391651   1.000000
    2        1.507015  -0.000000
    3        2.857372  -0.000000
    4        4.680956  -0.000000
    5        5.447370  -0.000000

  0.4615385E+00  0.3076923E+00  0.1538462E+00  0.2184797E-01
    1        0.156737   1.003014
    2        0.794934  -0.014516
    3        3.363003  -0.000000
    4        3.975704  -0.000000
    5        5.946737  -0.000000

  0.3846154E+00  0.3846154E+00  0.1538462E+00  0.1092399E-01
    1        0.057334   1.000320
    2        1.748324  -0.000000
    3        2.244703  -0.000000
    4        3.889215  -0.000000
    5        5.843744  -0.000000

  0.4615385E+00  0.3846154E+00  0.1538462E+00  0.2184797E-01
    1        0.598773   0.552382
    2        1.218798  -0.000075
    3        2.577540  -0.000000
    4        3.181836  -0.000000
    5        6.323834   0.000000

  0.4615385E+00  0.4615385E+00  0.1538462E+00  0.1092399E-01
    1        1.122319  -0.000900
    2        1.562022  -0.000000
    3        2.047887  -0.000000
    4        2.482293  -0.000000
    5        6.747071   0.000000

  0.2307692E+00  0.2307692E+00  0.2307692E+00  0.3641329E-02
    1       -1.301524   1.000000
    2        2.914655  -0.000000
    3        2.914655  -0.000000
    4        3.936197  -0.000000
    5        7.177313   0.000000

  0.3076923E+00  0.2307692E+00  0.2307692E+00  0.1092399E-01
    1       -0.946004   1.000000
    2        2.204815  -0.000000
    3        3.241730  -0.000000
    4        4.073149  -0.000000
    5        6.827708   0.000000

  0.3846154E+00  0.2307692E+00  0.2307692E+00  0.1092399E-01
    1       -0.492018   1.000000
    2        1.422778  -0.000000
    3        3.662581  -0.000000
    4        4.460417  -0.000000
    5        6.204919   0.000000

  0.4615385E+00  0.2307692E+00  0.2307692E+00  0.1092399E-01
    1        0.057714   1.000323
    2        0.698814   0.165724
    3        4.177404  -0.000000
    4        4.965929  -0.000000
    5        5.557446  -0.000000

  0.3076923E+00  0.3076923E+00  0.2307692E+00  0.1092399E-01
    1       -0.592633   1.000000
    2        2.354164  -0.000000
    3        2.785019  -0.000000
    4        4.137926  -0.000000
    5        5.628969  -0.000000

  0.3846154E+00  0.3076923E+00  0.2307692E+00  0.2184797E-01
    1       -0.141622   1.000001
    2        1.742579  -0.000000
    3        3.048780  -0.000000
    4        4.514619  -0.000000
    5        4.859803  -0.000000

  0.4615385E+00  0.3076923E+00  0.2307692E+00  0.2184797E-01
    1        0.403800   1.028544
    2        1.037619  -0.005096
    3        3.553785  -0.000000
    4        4.161804  -0.000000
    5        5.010786  -0.000000

  0.3846154E+00  0.3846154E+00  0.2307692E+00  0.1092399E-01
    1        0.304986   1.026252
    2        1.980940  -0.000000
    3        2.471149  -0.000000
    4        4.099578  -0.000000
    5        4.882488  -0.000000

  0.4615385E+00  0.3846154E+00  0.2307692E+00  0.2184797E-01
    1        0.843038  -0.034737
    2        1.457794  -0.000000
    3        2.804403  -0.000000
    4        3.402839  -0.000000
    5        5.358456  -0.000000

  0.4615385E+00  0.4615385E+00  0.2307692E+00  0.1092399E-01
    1        1.362167  -0.000001
    2        1.794479  -0.000000
    3        2.288633  -0.000000
    4        2.715406  -0.000000
    5        5.775157  -0.000000

  0.3076923E+00  0.3076923E+00  0.3076923E+00  0.3641329E-02
    1       -0.241532   1.000000
    2        2.680524  -0.000000
    3        2.680524  -0.000000
    4        3.676617  -0.000000
    5        5.720979  -0.000000

  0.3846154E+00  0.3076923E+00  0.3076923E+00  0.1092399E-01
    1        0.206272   1.007379
    2        2.060949  -0.000000
    3        3.100526  -0.000000
    4        3.907886  -0.000000
    5        5.468281  -0.000000

  0.4615385E+00  0.3076923E+00  0.3076923E+00  0.1092399E-01
    1        0.747020   0.047598
    2        1.373044  -0.000001
    3        3.614418  -0.000000
    4        4.377921  -0.000000
    5        4.933495  -0.000000

  0.3846154E+00  0.3846154E+00  0.3076923E+00  0.1092399E-01
    1        0.649315   0.341840
    2        2.306870  -0.000000
    3        2.732008  -0.000000
    4        4.062057  -0.000000
    5        4.358292  -0.000000

  0.4615385E+00  0.3846154E+00  0.3076923E+00  0.2184797E-01
    1        1.182150  -0.000205
    2        1.788611  -0.000000
    3        3.089983  -0.000000
    4        3.682788  -0.000000
    5        4.508208  -0.000000

  0.4615385E+00  0.4615385E+00  0.3076923E+00  0.1092399E-01
    1        1.695146  -0.000000
    2        2.120197  -0.000000
    3        2.607289  -0.000000
    4        3.027140  -0.000000
    5        4.896304  -0.000000

  0.3846154E+00  0.3846154E+00  0.3846154E+00  0.3641329E-02
    1        1.087124  -0.001949
    2        2.726342  -0.000000
    3        2.726342  -0.000000
    4        3.679995  -0.000000
    5        4.548554  -0.000000

  0.4615385E+00  0.3846154E+00  0.3846154E+00  0.1092399E-01
    1        1.611500  -0.000000
    2        2.200560  -0.000000
    3        3.239635  -0.000000
    4        3.968381  -0.000000
    5        4.387857  -0.000000

  0.4615385E+00  0.4615385E+00  0.3846154E+00  0.1092399E-01
    1        2.116469  -0.000000
    2        2.539420  -0.000000
    3        2.954410  -0.000000
    4        3.382426  -0.000000
    5        4.141689  -0.000000

  0.4615385E+00  0.4615385E+00  0.4615385E+00  0.3641329E-02
    1        2.609543  -0.000000
    2        3.052416  -0.000000
    3        3.052416  -0.000000
    4        3.659457  -0.000000
    5        3.712224  -0.000000
