unknown system                          
   1.0000000000000000     
     4.282000    0.000000    0.000000
     0.000000    4.282000    0.000000
     0.000000    0.000000    4.282000
   Na
     2
Direct
  0.000000  0.000000  0.000000
  0.500000  0.500000  0.500000

   48   48   48
 -.41342524636E+02 -.40924291191E+02 -.39665077357E+02 -.37517047222E+02 -.34447942508E+02
 -.30474579006E+02 -.25793998284E+02 -.20827241951E+02 -.16004452791E+02 -.11486361123E+02
 -.68996056633E+01 -.30533722677E+01 -.10111238178E+01 -.69344476610E+00 -.16607503747E+00
 0.60499378066E+00 0.11046184959E+01 0.16059758757E+01 0.19356115177E+01 0.22679545563E+01
 0.24667420078E+01 0.26720604490E+01 0.27619209098E+01 0.28631508521E+01 0.28568856632E+01
 0.28631508522E+01 0.27619209100E+01 0.26720604491E+01 0.24667420080E+01 0.22679545566E+01
 0.19356115180E+01 0.16059758760E+01 0.11046184963E+01 0.60499378106E+00 -.16607503705E+00
 -.69344476567E+00 -.10111238174E+01 -.30533722673E+01 -.68996056629E+01 -.11486361122E+02
 -.16004452791E+02 -.20827241951E+02 -.25793998284E+02 -.30474579006E+02 -.34447942507E+02
 -.37517047222E+02 -.39665077356E+02 -.40924291191E+02 -.40924291191E+02 -.40493266794E+02
 -.39224981790E+02 -.37051235379E+02 -.33988747744E+02 -.30042780827E+02 -.25417725333E+02
 -.20456360132E+02 -.15716708437E+02 -.11242409908E+02 -.66734995518E+01 -.29209301346E+01
 -.97084511275E+00 -.69175114153E+00 -.13397090227E+00 0.62025570902E+00 0.11219948203E+01
 0.16142218942E+01 0.19460947118E+01 0.22724434256E+01 0.24715120295E+01 0.26740692086E+01
 0.27660754583E+01 0.28651959911E+01 0.28607987157E+01 0.28651959911E+01 0.27660754584E+01
 0.26740692088E+01 0.24715120298E+01 0.22724434258E+01 0.19460947121E+01 0.16142218945E+01
 0.11219948207E+01 0.62025570942E+00 -.13397090185E+00 -.69175114110E+00 -.97084511232E+00
 -.29209301342E+01 -.66734995514E+01 -.11242409907E+02 -.15716708437E+02 -.20456360132E+02
 -.25417725332E+02 -.30042780826E+02 -.33988747744E+02 -.37051235379E+02 -.39224981790E+02
 -.40493266794E+02 -.39665077357E+02 -.39224981790E+02 -.37954478879E+02 -.35763039976E+02
 -.32691994487E+02 -.28736753716E+02 -.24194475280E+02 -.19435382569E+02 -.14890564524E+02
 -.10478361631E+02 -.60430003214E+01 -.25320664982E+01 -.88218074468E+00 -.67294526192E+00
 -.43175852862E-01 0.66864487970E+00 0.11697371332E+01 0.16426745685E+01 0.19724847436E+01
 0.22876860850E+01 0.24878288741E+01 0.26819892894E+01 0.27747910690E+01 0.28685655781E+01
 0.28671918095E+01 0.28685655781E+01 0.27747910691E+01 0.26819892895E+01 0.24878288744E+01
 0.22876860852E+01 0.19724847439E+01 0.16426745689E+01 0.11697371335E+01 0.66864488012E+00
 -.43175852437E-01 -.67294526148E+00 -.88218074425E+00 -.25320664977E+01 -.60430003210E+01
 -.10478361631E+02 -.14890564523E+02 -.19435382569E+02 -.24194475280E+02 -.28736753715E+02
 -.32691994487E+02 -.35763039976E+02 -.37954478879E+02 -.39224981790E+02 -.37517047222E+02
 -.37051235379E+02 -.35763039976E+02 -.33526033869E+02 -.30483252194E+02 -.26622518023E+02
 -.22311802075E+02 -.17787323011E+02 -.13557357866E+02 -.92487729101E+01 -.50444962770E+01
 -.19857954603E+01 -.78443107197E+00 -.62483481408E+00 0.11082676800E+00 0.73862777909E+00
 0.12539779297E+01 0.16810194450E+01 0.20227120575E+01 0.23064055936E+01 0.25170622115E+01
 0.26889012302E+01 0.27954449177E+01 0.28712454996E+01 0.28851305347E+01 0.28712454997E+01
 0.27954449178E+01 0.26889012304E+01 0.25170622117E+01 0.23064055939E+01 0.20227120578E+01
 0.16810194454E+01 0.12539779301E+01 0.73862777950E+00 0.11082676844E+00 -.62483481364E+00
 -.78443107152E+00 -.19857954598E+01 -.50444962766E+01 -.92487729097E+01 -.13557357866E+02
 -.17787323011E+02 -.22311802075E+02 -.26622518022E+02 -.30483252194E+02 -.33526033869E+02
 -.35763039976E+02 -.37051235379E+02 -.34447942508E+02 -.33988747744E+02 -.32691994487E+02
 -.30483252194E+02 -.27497182263E+02 -.23794453821E+02 -.19777652175E+02 -.15714587972E+02
 -.11771788321E+02 -.75669844011E+01 -.38346801284E+01 -.13931939947E+01 -.74293218393E+00
 -.49325760727E+00 0.29992866242E+00 0.83872196998E+00 0.13614067038E+01 0.17356749195E+01
 0.20867995116E+01 0.23320355546E+01 0.25581366565E+01 0.26980771654E+01 0.28219801192E+01
 0.28715866241E+01 0.29071353174E+01 0.28715866242E+01 0.28219801194E+01 0.26980771656E+01
 0.25581366567E+01 0.23320355549E+01 0.20867995119E+01 0.17356749199E+01 0.13614067042E+01
 0.83872197041E+00 0.29992866287E+00 -.49325760681E+00 -.74293218347E+00 -.13931939943E+01
 -.38346801280E+01 -.75669844007E+01 -.11771788321E+02 -.15714587972E+02 -.19777652175E+02
 -.23794453820E+02 -.27497182263E+02 -.30483252194E+02 -.32691994487E+02 -.33988747744E+02
 -.30474579006E+02 -.30042780827E+02 -.28736753716E+02 -.26622518023E+02 -.23794453821E+02
 -.20476000127E+02 -.16910758310E+02 -.13277146359E+02 -.95146672126E+01 -.56281511490E+01
 -.25654265338E+01 -.94292114484E+00 -.73328506197E+00 -.24281104820E+00 0.48956097914E+00
 0.98072739267E+00 0.14745623810E+01 0.18136803542E+01 0.21542840703E+01 0.23726002903E+01
 0.25962947231E+01 0.27166787610E+01 0.28468232084E+01 0.28814132482E+01 0.29277603276E+01
 0.28814132483E+01 0.28468232085E+01 0.27166787612E+01 0.25962947234E+01 0.23726002906E+01
 0.21542840707E+01 0.18136803546E+01 0.14745623815E+01 0.98072739311E+00 0.48956097961E+00
 -.24281104773E+00 -.73328506150E+00 -.94292114438E+00 -.25654265333E+01 -.56281511486E+01
 -.95146672121E+01 -.13277146359E+02 -.16910758310E+02 -.20476000127E+02 -.23794453821E+02
 -.26622518022E+02 -.28736753715E+02 -.30042780827E+02 -.25793998284E+02 -.25417725333E+02
 -.24194475280E+02 -.22311802075E+02 -.19777652175E+02 -.16910758310E+02 -.13771511804E+02
 -.10536597693E+02 -.68961944190E+01 -.36767523312E+01 -.14903545962E+01 -.75645194932E+00
 -.63248685276E+00 0.10102344054E+00 0.65865998982E+00 0.11735388412E+01 0.15722096745E+01
 0.19293522004E+01 0.22039772097E+01 0.24420252283E+01 0.26181607234E+01 0.27601049483E+01
 0.28509810219E+01 0.29114927472E+01 0.29262707304E+01 0.29114927473E+01 0.28509810221E+01
 0.27601049485E+01 0.26181607236E+01 0.24420252286E+01 0.22039772100E+01 0.19293522008E+01
 0.15722096750E+01 0.11735388417E+01 0.65865999030E+00 0.10102344104E+00 -.63248685226E+00
 -.75645194883E+00 -.14903545957E+01 -.36767523308E+01 -.68961944186E+01 -.10536597693E+02
 -.13771511804E+02 -.16910758310E+02 -.19777652175E+02 -.22311802075E+02 -.24194475280E+02
 -.25417725332E+02 -.20827241951E+02 -.20456360132E+02 -.19435382569E+02 -.17787323011E+02
 -.15714587972E+02 -.13277146359E+02 -.10536597693E+02 -.73560364072E+01 -.43095942461E+01
 -.20497769458E+01 -.84179785273E+00 -.77067189916E+00 -.27390479743E+00 0.39234339376E+00
 0.88039687204E+00 0.13492638332E+01 0.17003385010E+01 0.20341558919E+01 0.22739172000E+01
 0.25032994401E+01 0.26504193424E+01 0.27949855495E+01 0.28652704570E+01 0.29355702318E+01
 0.29348946398E+01 0.29355702318E+01 0.28652704572E+01 0.27949855497E+01 0.26504193427E+01
 0.25032994404E+01 0.22739172004E+01 0.20341558923E+01 0.17003385014E+01 0.13492638336E+01
 0.88039687255E+00 0.39234339427E+00 -.27390479691E+00 -.77067189866E+00 -.84179785223E+00
 -.20497769453E+01 -.43095942456E+01 -.73560364068E+01 -.10536597693E+02 -.13277146359E+02
 -.15714587972E+02 -.17787323011E+02 -.19435382569E+02 -.20456360132E+02 -.16004452791E+02
 -.15716708437E+02 -.14890564524E+02 -.13557357866E+02 -.11771788321E+02 -.95146672126E+01
 -.68961944190E+01 -.43095942461E+01 -.22744698221E+01 -.95446798715E+00 -.78909481676E+00
 -.52147452904E+00 0.15943680045E+00 0.65030449397E+00 0.11358056229E+01 0.15042934500E+01
 0.18565841988E+01 0.21198045794E+01 0.23679399815E+01 0.25430132965E+01 0.27080962571E+01
 0.28079224767E+01 0.29004157806E+01 0.29342484421E+01 0.29627522357E+01 0.29342484422E+01
 0.29004157808E+01 0.28079224769E+01 0.27080962574E+01 0.25430132968E+01 0.23679399819E+01
 0.21198045798E+01 0.18565841993E+01 0.15042934506E+01 0.11358056234E+01 0.65030449451E+00
 0.15943680099E+00 -.52147452851E+00 -.78909481625E+00 -.95446798665E+00 -.22744698216E+01
 -.43095942456E+01 -.68961944186E+01 -.95146672122E+01 -.11771788321E+02 -.13557357866E+02
 -.14890564524E+02 -.15716708437E+02 -.11486361123E+02 -.11242409908E+02 -.10478361631E+02
 -.92487729101E+01 -.75669844011E+01 -.56281511490E+01 -.36767523312E+01 -.20497769458E+01
 -.95446798715E+00 -.78817541182E+00 -.62924286548E+00 -.44772369310E-02 0.49207283983E+00
 0.96055765898E+00 0.13454577435E+01 0.16953996600E+01 0.19810153810E+01 0.22339065714E+01
 0.24355369855E+01 0.26085297268E+01 0.27371984480E+01 0.28430871725E+01 0.29107699084E+01
 0.29569641537E+01 0.29672397063E+01 0.29569641538E+01 0.29107699085E+01 0.28430871728E+01
 0.27371984483E+01 0.26085297271E+01 0.24355369859E+01 0.22339065718E+01 0.19810153815E+01
 0.16953996605E+01 0.13454577440E+01 0.96055765955E+00 0.49207284040E+00 -.44772363711E-02
 -.62924286494E+00 -.78817541131E+00 -.95446798667E+00 -.20497769453E+01 -.36767523309E+01
 -.56281511487E+01 -.75669844009E+01 -.92487729099E+01 -.10478361631E+02 -.11242409908E+02
 -.68996056633E+01 -.66734995518E+01 -.60430003214E+01 -.50444962770E+01 -.38346801284E+01
 -.25654265338E+01 -.14903545962E+01 -.84179785273E+00 -.78909481676E+00 -.62924286548E+00
 -.62846749159E-01 0.40939143537E+00 0.84823314567E+00 0.12299778670E+01 0.15700949664E+01
 0.18632540850E+01 0.21170898761E+01 0.23323786615E+01 0.25118823650E+01 0.26594970721E+01
 0.27774252554E+01 0.28663022088E+01 0.29278674645E+01 0.29647777809E+01 0.29766048010E+01
 0.29647777810E+01 0.29278674646E+01 0.28663022090E+01 0.27774252557E+01 0.26594970725E+01
 0.25118823654E+01 0.23323786620E+01 0.21170898766E+01 0.18632540856E+01 0.15700949669E+01
 0.12299778676E+01 0.84823314627E+00 0.40939143596E+00 -.62846748590E-01 -.62924286494E+00
 -.78909481626E+00 -.84179785227E+00 -.14903545958E+01 -.25654265334E+01 -.38346801282E+01
 -.50444962768E+01 -.60430003213E+01 -.66734995517E+01 -.30533722677E+01 -.29209301346E+01
 -.25320664982E+01 -.19857954603E+01 -.13931939947E+01 -.94292114484E+00 -.75645194932E+00
 -.77067189916E+00 -.52147452904E+00 -.44772369310E-02 0.40939143537E+00 0.80981019004E+00
 0.11686829301E+01 0.14909787820E+01 0.17772854549E+01 0.20265079409E+01 0.22440237425E+01
 0.24268275270E+01 0.25833014165E+01 0.27088321939E+01 0.28099463490E+01 0.28856964126E+01
 0.29413546803E+01 0.29724280052E+01 0.29843445445E+01 0.29724280053E+01 0.29413546805E+01
 0.28856964129E+01 0.28099463494E+01 0.27088321943E+01 0.25833014169E+01 0.24268275275E+01
 0.22440237431E+01 0.20265079415E+01 0.17772854555E+01 0.14909787826E+01 0.11686829307E+01
 0.80981019066E+00 0.40939143597E+00 -.44772363634E-02 -.52147452851E+00 -.77067189868E+00
 -.75645194889E+00 -.94292114448E+00 -.13931939944E+01 -.19857954601E+01 -.25320664980E+01
 -.29209301345E+01 -.10111238178E+01 -.97084511275E+00 -.88218074468E+00 -.78443107197E+00
 -.74293218393E+00 -.73328506197E+00 -.63248685276E+00 -.27390479743E+00 0.15943680045E+00
 0.49207283983E+00 0.84823314567E+00 0.11686829301E+01 0.14639089357E+01 0.17319972219E+01
 0.19689559036E+01 0.21798132179E+01 0.23599990864E+01 0.25172835949E+01 0.26456181809E+01
 0.27539824876E+01 0.28392741870E+01 0.29051107440E+01 0.29484950060E+01 0.29760533063E+01
 0.29835414861E+01 0.29760533064E+01 0.29484950061E+01 0.29051107443E+01 0.28392741873E+01
 0.27539824880E+01 0.26456181814E+01 0.25172835954E+01 0.23599990870E+01 0.21798132185E+01
 0.19689559042E+01 0.17319972226E+01 0.14639089363E+01 0.11686829307E+01 0.84823314630E+00
 0.49207284043E+00 0.15943680100E+00 -.27390479692E+00 -.63248685231E+00 -.73328506159E+00
 -.74293218362E+00 -.78443107173E+00 -.88218074452E+00 -.97084511267E+00 -.69344476610E+00
 -.69175114153E+00 -.67294526192E+00 -.62483481408E+00 -.49325760727E+00 -.24281104820E+00
 0.10102344054E+00 0.39234339376E+00 0.65030449397E+00 0.96055765898E+00 0.12299778670E+01
 0.14909787820E+01 0.17319972219E+01 0.19491980544E+01 0.21460984492E+01 0.23172115576E+01
 0.24689394764E+01 0.25952104528E+01 0.27051255289E+01 0.27926398381E+01 0.28623030888E+01
 0.29144547419E+01 0.29538452334E+01 0.29756643443E+01 0.29843445445E+01 0.29756643444E+01
 0.29538452336E+01 0.29144547422E+01 0.28623030891E+01 0.27926398386E+01 0.27051255294E+01
 0.25952104534E+01 0.24689394770E+01 0.23172115583E+01 0.21460984499E+01 0.19491980551E+01
 0.17319972226E+01 0.14909787827E+01 0.12299778676E+01 0.96055765960E+00 0.65030449455E+00
 0.39234339429E+00 0.10102344101E+00 -.24281104780E+00 -.49325760695E+00 -.62483481383E+00
 -.67294526175E+00 -.69175114145E+00 -.16607503747E+00 -.13397090227E+00 -.43175852862E-01
 0.11082676800E+00 0.29992866242E+00 0.48956097914E+00 0.65865998982E+00 0.88039687204E+00
 0.11358056229E+01 0.13454577435E+01 0.15700949664E+01 0.17772854549E+01 0.19689559036E+01
 0.21460984492E+01 0.23024759991E+01 0.24434578617E+01 0.25627761687E+01 0.26686409742E+01
 0.27532746662E+01 0.28244492476E+01 0.28824009284E+01 0.29268470784E+01 0.29547408495E+01
 0.29721522593E+01 0.29766048009E+01 0.29721522594E+01 0.29547408497E+01 0.29268470788E+01
 0.28824009288E+01 0.28244492481E+01 0.27532746668E+01 0.26686409749E+01 0.25627761694E+01
 0.24434578624E+01 0.23024759998E+01 0.21460984500E+01 0.19689559043E+01 0.17772854556E+01
 0.15700949671E+01 0.13454577441E+01 0.11358056235E+01 0.88039687259E+00 0.65865999031E+00
 0.48956097956E+00 0.29992866276E+00 0.11082676826E+00 -.43175852687E-01 -.13397090218E+00
 0.60499378066E+00 0.62025570902E+00 0.66864487970E+00 0.73862777909E+00 0.83872196998E+00
 0.98072739267E+00 0.11735388412E+01 0.13492638332E+01 0.15042934500E+01 0.16953996600E+01
 0.18632540850E+01 0.20265079409E+01 0.21798132179E+01 0.23172115576E+01 0.24434578617E+01
 0.25515812925E+01 0.26491243731E+01 0.27275572662E+01 0.27970693918E+01 0.28539349304E+01
 0.28948129669E+01 0.29239940183E+01 0.29476835018E+01 0.29614699028E+01 0.29672397063E+01
 0.29614699029E+01 0.29476835020E+01 0.29239940186E+01 0.28948129674E+01 0.28539349309E+01
 0.27970693924E+01 0.27275572669E+01 0.26491243738E+01 0.25515812932E+01 0.24434578624E+01
 0.23172115584E+01 0.21798132187E+01 0.20265079416E+01 0.18632540858E+01 0.16953996607E+01
 0.15042934507E+01 0.13492638337E+01 0.11735388417E+01 0.98072739310E+00 0.83872197033E+00
 0.73862777936E+00 0.66864487989E+00 0.62025570911E+00 0.11046184959E+01 0.11219948203E+01
 0.11697371332E+01 0.12539779297E+01 0.13614067038E+01 0.14745623810E+01 0.15722096745E+01
 0.17003385010E+01 0.18565841988E+01 0.19810153810E+01 0.21170898761E+01 0.22440237425E+01
 0.23599990864E+01 0.24689394764E+01 0.25627761687E+01 0.26491243731E+01 0.27186765905E+01
 0.27825389059E+01 0.28332509521E+01 0.28685349099E+01 0.29018874974E+01 0.29319259364E+01
 0.29502683352E+01 0.29605952253E+01 0.29627522356E+01 0.29605952254E+01 0.29502683355E+01
 0.29319259367E+01 0.29018874978E+01 0.28685349104E+01 0.28332509527E+01 0.27825389065E+01
 0.27186765912E+01 0.26491243739E+01 0.25627761695E+01 0.24689394772E+01 0.23599990872E+01
 0.22440237433E+01 0.21170898768E+01 0.19810153817E+01 0.18565841995E+01 0.17003385016E+01
 0.15722096751E+01 0.14745623815E+01 0.13614067042E+01 0.12539779300E+01 0.11697371333E+01
 0.11219948204E+01 0.16059758757E+01 0.16142218942E+01 0.16426745685E+01 0.16810194450E+01
 0.17356749195E+01 0.18136803542E+01 0.19293522004E+01 0.20341558919E+01 0.21198045794E+01
 0.22339065714E+01 0.23323786615E+01 0.24268275270E+01 0.25172835949E+01 0.25952104528E+01
 0.26686409742E+01 0.27275572662E+01 0.27825389059E+01 0.28256897844E+01 0.28550575430E+01
 0.28906484062E+01 0.29172362088E+01 0.29263926227E+01 0.29311524150E+01 0.29329196128E+01
 0.29348946397E+01 0.29329196130E+01 0.29311524153E+01 0.29263926231E+01 0.29172362093E+01
 0.28906484067E+01 0.28550575436E+01 0.28256897851E+01 0.27825389066E+01 0.27275572671E+01
 0.26686409751E+01 0.25952104536E+01 0.25172835957E+01 0.24268275278E+01 0.23323786623E+01
 0.22339065721E+01 0.21198045801E+01 0.20341558925E+01 0.19293522009E+01 0.18136803547E+01
 0.17356749199E+01 0.16810194453E+01 0.16426745687E+01 0.16142218943E+01 0.19356115177E+01
 0.19460947118E+01 0.19724847436E+01 0.20227120575E+01 0.20867995116E+01 0.21542840703E+01
 0.22039772097E+01 0.22739172000E+01 0.23679399815E+01 0.24355369855E+01 0.25118823650E+01
 0.25833014165E+01 0.26456181809E+01 0.27051255289E+01 0.27532746662E+01 0.27970693918E+01
 0.28332509521E+01 0.28550575430E+01 0.28870320632E+01 0.29051330339E+01 0.29030406526E+01
 0.29089848418E+01 0.29162844001E+01 0.29253090695E+01 0.29262707305E+01 0.29253090696E+01
 0.29162844003E+01 0.29089848422E+01 0.29030406532E+01 0.29051330346E+01 0.28870320637E+01
 0.28550575437E+01 0.28332509529E+01 0.27970693926E+01 0.27532746671E+01 0.27051255297E+01
 0.26456181818E+01 0.25833014173E+01 0.25118823658E+01 0.24355369863E+01 0.23679399823E+01
 0.22739172007E+01 0.22039772102E+01 0.21542840708E+01 0.20867995120E+01 0.20227120578E+01
 0.19724847438E+01 0.19460947119E+01 0.22679545563E+01 0.22724434256E+01 0.22876860850E+01
 0.23064055936E+01 0.23320355546E+01 0.23726002903E+01 0.24420252283E+01 0.25032994401E+01
 0.25430132965E+01 0.26085297268E+01 0.26594970721E+01 0.27088321939E+01 0.27539824876E+01
 0.27926398381E+01 0.28244492476E+01 0.28539349304E+01 0.28685349099E+01 0.28906484062E+01
 0.29051330339E+01 0.28948318917E+01 0.29040685537E+01 0.29139082421E+01 0.29245472529E+01
 0.29247561854E+01 0.29277603276E+01 0.29247561855E+01 0.29245472532E+01 0.29139082424E+01
 0.29040685541E+01 0.28948318923E+01 0.29051330347E+01 0.28906484068E+01 0.28685349107E+01
 0.28539349313E+01 0.28244492485E+01 0.27926398390E+01 0.27539824884E+01 0.27088321948E+01
 0.26594970729E+01 0.26085297275E+01 0.25430132972E+01 0.25032994408E+01 0.24420252288E+01
 0.23726002908E+01 0.23320355550E+01 0.23064055939E+01 0.22876860852E+01 0.22724434257E+01
 0.24667420078E+01 0.24715120295E+01 0.24878288741E+01 0.25170622115E+01 0.25581366565E+01
 0.25962947231E+01 0.26181607234E+01 0.26504193424E+01 0.27080962571E+01 0.27371984480E+01
 0.27774252554E+01 0.28099463490E+01 0.28392741870E+01 0.28623030888E+01 0.28824009284E+01
 0.28948129669E+01 0.29018874974E+01 0.29172362088E+01 0.29030406526E+01 0.29040685537E+01
 0.29120948847E+01 0.29173502626E+01 0.29130795487E+01 0.29101599434E+01 0.29071353173E+01
 0.29101599435E+01 0.29130795490E+01 0.29173502630E+01 0.29120948852E+01 0.29040685542E+01
 0.29030406534E+01 0.29172362096E+01 0.29018874981E+01 0.28948129679E+01 0.28824009292E+01
 0.28623030897E+01 0.28392741879E+01 0.28099463499E+01 0.27774252563E+01 0.27371984488E+01
 0.27080962578E+01 0.26504193431E+01 0.26181607239E+01 0.25962947237E+01 0.25581366569E+01
 0.25170622118E+01 0.24878288744E+01 0.24715120296E+01 0.26720604490E+01 0.26740692086E+01
 0.26819892894E+01 0.26889012302E+01 0.26980771654E+01 0.27166787610E+01 0.27601049483E+01
 0.27949855495E+01 0.28079224767E+01 0.28430871725E+01 0.28663022088E+01 0.28856964126E+01
 0.29051107440E+01 0.29144547419E+01 0.29268470784E+01 0.29239940183E+01 0.29319259364E+01
 0.29263926227E+01 0.29089848418E+01 0.29139082421E+01 0.29173502626E+01 0.29096123740E+01
 0.28969828045E+01 0.28884129145E+01 0.28851305346E+01 0.28884129147E+01 0.28969828048E+01
 0.29096123745E+01 0.29173502631E+01 0.29139082426E+01 0.29089848425E+01 0.29263926236E+01
 0.29319259371E+01 0.29239940192E+01 0.29268470794E+01 0.29144547428E+01 0.29051107449E+01
 0.28856964135E+01 0.28663022096E+01 0.28430871734E+01 0.28079224775E+01 0.27949855502E+01
 0.27601049489E+01 0.27166787615E+01 0.26980771659E+01 0.26889012305E+01 0.26819892896E+01
 0.26740692087E+01 0.27619209098E+01 0.27660754583E+01 0.27747910690E+01 0.27954449177E+01
 0.28219801192E+01 0.28468232084E+01 0.28509810219E+01 0.28652704570E+01 0.29004157806E+01
 0.29107699084E+01 0.29278674645E+01 0.29413546803E+01 0.29484950060E+01 0.29538452334E+01
 0.29547408495E+01 0.29476835018E+01 0.29502683352E+01 0.29311524150E+01 0.29162844001E+01
 0.29245472529E+01 0.29130795487E+01 0.28969828045E+01 0.28787472406E+01 0.28722573571E+01
 0.28671918094E+01 0.28722573573E+01 0.28787472409E+01 0.28969828050E+01 0.29130795493E+01
 0.29245472535E+01 0.29162844006E+01 0.29311524160E+01 0.29502683360E+01 0.29476835027E+01
 0.29547408505E+01 0.29538452343E+01 0.29484950069E+01 0.29413546812E+01 0.29278674654E+01
 0.29107699092E+01 0.29004157814E+01 0.28652704577E+01 0.28509810226E+01 0.28468232089E+01
 0.28219801197E+01 0.27954449180E+01 0.27747910692E+01 0.27660754584E+01 0.28631508521E+01
 0.28651959911E+01 0.28685655781E+01 0.28712454996E+01 0.28715866241E+01 0.28814132482E+01
 0.29114927472E+01 0.29355702318E+01 0.29342484421E+01 0.29569641537E+01 0.29647777809E+01
 0.29724280052E+01 0.29760533063E+01 0.29756643443E+01 0.29721522593E+01 0.29614699028E+01
 0.29605952253E+01 0.29329196128E+01 0.29253090695E+01 0.29247561854E+01 0.29101599434E+01
 0.28884129145E+01 0.28722573571E+01 0.28631330279E+01 0.28607987157E+01 0.28631330281E+01
 0.28722573575E+01 0.28884129150E+01 0.29101599440E+01 0.29247561860E+01 0.29253090701E+01
 0.29329196138E+01 0.29605952262E+01 0.29614699036E+01 0.29721522603E+01 0.29756643452E+01
 0.29760533073E+01 0.29724280061E+01 0.29647777818E+01 0.29569641546E+01 0.29342484429E+01
 0.29355702324E+01 0.29114927479E+01 0.28814132487E+01 0.28715866246E+01 0.28712454999E+01
 0.28685655783E+01 0.28651959912E+01 0.28568856632E+01 0.28607987157E+01 0.28671918095E+01
 0.28851305347E+01 0.29071353174E+01 0.29277603276E+01 0.29262707304E+01 0.29348946398E+01
 0.29627522357E+01 0.29672397063E+01 0.29766048010E+01 0.29843445445E+01 0.29835414861E+01
 0.29843445445E+01 0.29766048009E+01 0.29672397063E+01 0.29627522356E+01 0.29348946397E+01
 0.29262707305E+01 0.29277603276E+01 0.29071353173E+01 0.28851305346E+01 0.28671918094E+01
 0.28607987157E+01 0.28568856632E+01 0.28607987158E+01 0.28671918097E+01 0.28851305351E+01
 0.29071353179E+01 0.29277603282E+01 0.29262707310E+01 0.29348946406E+01 0.29627522365E+01
 0.29672397071E+01 0.29766048019E+01 0.29843445455E+01 0.29835414871E+01 0.29843445455E+01
 0.29766048019E+01 0.29672397071E+01 0.29627522365E+01 0.29348946405E+01 0.29262707310E+01
 0.29277603281E+01 0.29071353178E+01 0.28851305350E+01 0.28671918097E+01 0.28607987158E+01
 0.28631508522E+01 0.28651959911E+01 0.28685655781E+01 0.28712454997E+01 0.28715866242E+01
 0.28814132483E+01 0.29114927473E+01 0.29355702318E+01 0.29342484422E+01 0.29569641538E+01
 0.29647777810E+01 0.29724280053E+01 0.29760533064E+01 0.29756643444E+01 0.29721522594E+01
 0.29614699029E+01 0.29605952254E+01 0.29329196130E+01 0.29253090696E+01 0.29247561855E+01
 0.29101599435E+01 0.28884129147E+01 0.28722573573E+01 0.28631330281E+01 0.28607987158E+01
 0.28631330282E+01 0.28722573576E+01 0.28884129152E+01 0.29101599441E+01 0.29247561861E+01
 0.29253090702E+01 0.29329196139E+01 0.29605952263E+01 0.29614699037E+01 0.29721522604E+01
 0.29756643453E+01 0.29760533074E+01 0.29724280062E+01 0.29647777819E+01 0.29569641546E+01
 0.29342484430E+01 0.29355702325E+01 0.29114927479E+01 0.28814132488E+01 0.28715866246E+01
 0.28712455000E+01 0.28685655783E+01 0.28651959912E+01 0.27619209100E+01 0.27660754584E+01
 0.27747910691E+01 0.27954449178E+01 0.28219801194E+01 0.28468232085E+01 0.28509810221E+01
 0.28652704572E+01 0.29004157808E+01 0.29107699085E+01 0.29278674646E+01 0.29413546805E+01
 0.29484950061E+01 0.29538452336E+01 0.29547408497E+01 0.29476835020E+01 0.29502683355E+01
 0.29311524153E+01 0.29162844003E+01 0.29245472532E+01 0.29130795490E+01 0.28969828048E+01
 0.28787472409E+01 0.28722573575E+01 0.28671918097E+01 0.28722573576E+01 0.28787472412E+01
 0.28969828053E+01 0.29130795496E+01 0.29245472537E+01 0.29162844008E+01 0.29311524163E+01
 0.29502683363E+01 0.29476835029E+01 0.29547408507E+01 0.29538452345E+01 0.29484950071E+01
 0.29413546814E+01 0.29278674655E+01 0.29107699094E+01 0.29004157815E+01 0.28652704579E+01
 0.28509810227E+01 0.28468232090E+01 0.28219801198E+01 0.27954449181E+01 0.27747910694E+01
 0.27660754585E+01 0.26720604491E+01 0.26740692088E+01 0.26819892895E+01 0.26889012304E+01
 0.26980771656E+01 0.27166787612E+01 0.27601049485E+01 0.27949855497E+01 0.28079224769E+01
 0.28430871728E+01 0.28663022090E+01 0.28856964129E+01 0.29051107443E+01 0.29144547422E+01
 0.29268470788E+01 0.29239940186E+01 0.29319259367E+01 0.29263926231E+01 0.29089848422E+01
 0.29139082424E+01 0.29173502630E+01 0.29096123745E+01 0.28969828050E+01 0.28884129150E+01
 0.28851305351E+01 0.28884129152E+01 0.28969828053E+01 0.29096123749E+01 0.29173502634E+01
 0.29139082429E+01 0.29089848429E+01 0.29263926240E+01 0.29319259374E+01 0.29239940196E+01
 0.29268470797E+01 0.29144547431E+01 0.29051107452E+01 0.28856964138E+01 0.28663022099E+01
 0.28430871736E+01 0.28079224777E+01 0.27949855504E+01 0.27601049491E+01 0.27166787617E+01
 0.26980771661E+01 0.26889012307E+01 0.26819892898E+01 0.26740692089E+01 0.24667420080E+01
 0.24715120298E+01 0.24878288744E+01 0.25170622117E+01 0.25581366567E+01 0.25962947234E+01
 0.26181607236E+01 0.26504193427E+01 0.27080962574E+01 0.27371984483E+01 0.27774252557E+01
 0.28099463494E+01 0.28392741873E+01 0.28623030891E+01 0.28824009288E+01 0.28948129674E+01
 0.29018874978E+01 0.29172362093E+01 0.29030406532E+01 0.29040685541E+01 0.29120948852E+01
 0.29173502631E+01 0.29130795493E+01 0.29101599440E+01 0.29071353179E+01 0.29101599441E+01
 0.29130795496E+01 0.29173502634E+01 0.29120948856E+01 0.29040685546E+01 0.29030406540E+01
 0.29172362101E+01 0.29018874985E+01 0.28948129684E+01 0.28824009296E+01 0.28623030901E+01
 0.28392741882E+01 0.28099463503E+01 0.27774252566E+01 0.27371984491E+01 0.27080962581E+01
 0.26504193433E+01 0.26181607242E+01 0.25962947239E+01 0.25581366571E+01 0.25170622120E+01
 0.24878288746E+01 0.24715120299E+01 0.22679545566E+01 0.22724434258E+01 0.22876860852E+01
 0.23064055939E+01 0.23320355549E+01 0.23726002906E+01 0.24420252286E+01 0.25032994404E+01
 0.25430132968E+01 0.26085297271E+01 0.26594970725E+01 0.27088321943E+01 0.27539824880E+01
 0.27926398386E+01 0.28244492481E+01 0.28539349309E+01 0.28685349104E+01 0.28906484067E+01
 0.29051330346E+01 0.28948318923E+01 0.29040685542E+01 0.29139082426E+01 0.29245472535E+01
 0.29247561860E+01 0.29277603282E+01 0.29247561861E+01 0.29245472537E+01 0.29139082429E+01
 0.29040685546E+01 0.28948318930E+01 0.29051330354E+01 0.28906484073E+01 0.28685349113E+01
 0.28539349318E+01 0.28244492490E+01 0.27926398395E+01 0.27539824889E+01 0.27088321952E+01
 0.26594970733E+01 0.26085297279E+01 0.25430132975E+01 0.25032994411E+01 0.24420252291E+01
 0.23726002911E+01 0.23320355553E+01 0.23064055942E+01 0.22876860855E+01 0.22724434260E+01
 0.19356115180E+01 0.19460947121E+01 0.19724847439E+01 0.20227120578E+01 0.20867995119E+01
 0.21542840707E+01 0.22039772100E+01 0.22739172004E+01 0.23679399819E+01 0.24355369859E+01
 0.25118823654E+01 0.25833014169E+01 0.26456181814E+01 0.27051255294E+01 0.27532746668E+01
 0.27970693924E+01 0.28332509527E+01 0.28550575436E+01 0.28870320637E+01 0.29051330347E+01
 0.29030406534E+01 0.29089848425E+01 0.29162844006E+01 0.29253090701E+01 0.29262707310E+01
 0.29253090702E+01 0.29162844008E+01 0.29089848429E+01 0.29030406540E+01 0.29051330354E+01
 0.28870320642E+01 0.28550575443E+01 0.28332509536E+01 0.27970693931E+01 0.27532746677E+01
 0.27051255302E+01 0.26456181823E+01 0.25833014177E+01 0.25118823663E+01 0.24355369867E+01
 0.23679399827E+01 0.22739172010E+01 0.22039772106E+01 0.21542840711E+01 0.20867995123E+01
 0.20227120581E+01 0.19724847441E+01 0.19460947122E+01 0.16059758760E+01 0.16142218945E+01
 0.16426745689E+01 0.16810194454E+01 0.17356749199E+01 0.18136803546E+01 0.19293522008E+01
 0.20341558923E+01 0.21198045798E+01 0.22339065718E+01 0.23323786620E+01 0.24268275275E+01
 0.25172835954E+01 0.25952104534E+01 0.26686409749E+01 0.27275572669E+01 0.27825389065E+01
 0.28256897851E+01 0.28550575437E+01 0.28906484068E+01 0.29172362096E+01 0.29263926236E+01
 0.29311524160E+01 0.29329196138E+01 0.29348946406E+01 0.29329196139E+01 0.29311524163E+01
 0.29263926240E+01 0.29172362101E+01 0.28906484073E+01 0.28550575443E+01 0.28256897859E+01
 0.27825389072E+01 0.27275572677E+01 0.26686409757E+01 0.25952104542E+01 0.25172835962E+01
 0.24268275283E+01 0.23323786628E+01 0.22339065726E+01 0.21198045805E+01 0.20341558929E+01
 0.19293522013E+01 0.18136803550E+01 0.17356749203E+01 0.16810194457E+01 0.16426745690E+01
 0.16142218946E+01 0.11046184963E+01 0.11219948207E+01 0.11697371335E+01 0.12539779301E+01
 0.13614067042E+01 0.14745623815E+01 0.15722096750E+01 0.17003385014E+01 0.18565841993E+01
 0.19810153815E+01 0.21170898766E+01 0.22440237431E+01 0.23599990870E+01 0.24689394770E+01
 0.25627761694E+01 0.26491243738E+01 0.27186765912E+01 0.27825389066E+01 0.28332509529E+01
 0.28685349107E+01 0.29018874981E+01 0.29319259371E+01 0.29502683360E+01 0.29605952262E+01
 0.29627522365E+01 0.29605952263E+01 0.29502683363E+01 0.29319259374E+01 0.29018874985E+01
 0.28685349113E+01 0.28332509536E+01 0.27825389072E+01 0.27186765920E+01 0.26491243746E+01
 0.25627761702E+01 0.24689394778E+01 0.23599990878E+01 0.22440237438E+01 0.21170898774E+01
 0.19810153822E+01 0.18565842000E+01 0.17003385020E+01 0.15722096755E+01 0.14745623819E+01
 0.13614067046E+01 0.12539779304E+01 0.11697371337E+01 0.11219948208E+01 0.60499378106E+00
 0.62025570942E+00 0.66864488012E+00 0.73862777950E+00 0.83872197041E+00 0.98072739311E+00
 0.11735388417E+01 0.13492638336E+01 0.15042934506E+01 0.16953996605E+01 0.18632540856E+01
 0.20265079415E+01 0.21798132185E+01 0.23172115583E+01 0.24434578624E+01 0.25515812932E+01
 0.26491243739E+01 0.27275572671E+01 0.27970693926E+01 0.28539349313E+01 0.28948129679E+01
 0.29239940192E+01 0.29476835027E+01 0.29614699036E+01 0.29672397071E+01 0.29614699037E+01
 0.29476835029E+01 0.29239940196E+01 0.28948129684E+01 0.28539349318E+01 0.27970693931E+01
 0.27275572677E+01 0.26491243746E+01 0.25515812939E+01 0.24434578631E+01 0.23172115591E+01
 0.21798132193E+01 0.20265079422E+01 0.18632540863E+01 0.16953996612E+01 0.15042934512E+01
 0.13492638342E+01 0.11735388422E+01 0.98072739355E+00 0.83872197077E+00 0.73862777977E+00