unknown system                          
   1.0000000000000000     
     4.282000    0.000000    0.000000
     0.000000    4.282000    0.000000
     0.000000    0.000000    4.282000
   Na
     2
Direct
  0.000000  0.000000  0.000000
  0.500000  0.500000  0.500000

   48   48   48
 -.41342526037E+02 -.40924292580E+02 -.39665078707E+02 -.37517048509E+02 -.34447943707E+02
 -.30474580095E+02 -.25793999244E+02 -.20827242772E+02 -.16004453471E+02 -.11486361667E+02
 -.68996060865E+01 -.30533725860E+01 -.10111240477E+01 -.69344492070E+00 -.16607512447E+00
 0.60499375878E+00 0.11046185401E+01 0.16059759877E+01 0.19356116974E+01 0.22679548003E+01
 0.24667423087E+01 0.26720607964E+01 0.27619212916E+01 0.28631512546E+01 0.28568860727E+01
 0.28631512547E+01 0.27619212917E+01 0.26720607966E+01 0.24667423089E+01 0.22679548005E+01
 0.19356116977E+01 0.16059759881E+01 0.11046185405E+01 0.60499375919E+00 -.16607512406E+00
 -.69344492027E+00 -.10111240473E+01 -.30533725856E+01 -.68996060861E+01 -.11486361667E+02
 -.16004453471E+02 -.20827242772E+02 -.25793999244E+02 -.30474580095E+02 -.34447943707E+02
 -.37517048509E+02 -.39665078707E+02 -.40924292580E+02 -.40924292580E+02 -.40493268170E+02
 -.39224983129E+02 -.37051236655E+02 -.33988748931E+02 -.30042781904E+02 -.25417726282E+02
 -.20456360944E+02 -.15716709109E+02 -.11242410447E+02 -.66734999707E+01 -.29209304501E+01
 -.97084534096E+00 -.69175129518E+00 -.13397098876E+00 0.62025568745E+00 0.11219948648E+01
 0.16142220064E+01 0.19460948917E+01 0.22724436695E+01 0.24715123303E+01 0.26740695559E+01
 0.27660758398E+01 0.28651963933E+01 0.28607991249E+01 0.28651963934E+01 0.27660758399E+01
 0.26740695561E+01 0.24715123306E+01 0.22724436698E+01 0.19460948920E+01 0.16142220068E+01
 0.11219948651E+01 0.62025568785E+00 -.13397098834E+00 -.69175129475E+00 -.97084534053E+00
 -.29209304497E+01 -.66734999703E+01 -.11242410446E+02 -.15716709109E+02 -.20456360944E+02
 -.25417726282E+02 -.30042781904E+02 -.33988748931E+02 -.37051236654E+02 -.39224983128E+02
 -.40493268170E+02 -.39665078707E+02 -.39224983129E+02 -.37954480180E+02 -.35763041214E+02
 -.32691995638E+02 -.28736754759E+02 -.24194476199E+02 -.19435383354E+02 -.14890565173E+02
 -.10478362153E+02 -.60430007280E+01 -.25320668055E+01 -.88218096796E+00 -.67294541279E+00
 -.43175937801E-01 0.66864485911E+00 0.11697371783E+01 0.16426746813E+01 0.19724849238E+01
 0.22876863291E+01 0.24878291748E+01 0.26819896363E+01 0.27747914499E+01 0.28685659796E+01
 0.28671922179E+01 0.28685659797E+01 0.27747914500E+01 0.26819896365E+01 0.24878291751E+01
 0.22876863294E+01 0.19724849242E+01 0.16426746817E+01 0.11697371787E+01 0.66864485952E+00
 -.43175937376E-01 -.67294541235E+00 -.88218096753E+00 -.25320668051E+01 -.60430007276E+01
 -.10478362152E+02 -.14890565173E+02 -.19435383354E+02 -.24194476198E+02 -.28736754758E+02
 -.32691995638E+02 -.35763041214E+02 -.37954480180E+02 -.39224983129E+02 -.37517048509E+02
 -.37051236655E+02 -.35763041214E+02 -.33526035046E+02 -.30483253286E+02 -.26622519010E+02
 -.22311802943E+02 -.17787323753E+02 -.13557358480E+02 -.92487734047E+01 -.50444966643E+01
 -.19857957549E+01 -.78443128752E+00 -.62483496052E+00 0.11082668567E+00 0.73862776029E+00
 0.12539779764E+01 0.16810195591E+01 0.20227122387E+01 0.23064058382E+01 0.25170625121E+01
 0.26889015766E+01 0.27954452976E+01 0.28712458999E+01 0.28851309419E+01 0.28712459000E+01
 0.27954452978E+01 0.26889015768E+01 0.25170625124E+01 0.23064058385E+01 0.20227122391E+01
 0.16810195595E+01 0.12539779768E+01 0.73862776071E+00 0.11082668611E+00 -.62483496008E+00
 -.78443128707E+00 -.19857957544E+01 -.50444966639E+01 -.92487734043E+01 -.13557358480E+02
 -.17787323752E+02 -.22311802943E+02 -.26622519010E+02 -.30483253286E+02 -.33526035046E+02
 -.35763041214E+02 -.37051236655E+02 -.34447943707E+02 -.33988748931E+02 -.32691995638E+02
 -.30483253286E+02 -.27497183275E+02 -.23794454733E+02 -.19777652977E+02 -.15714588657E+02
 -.11771788889E+02 -.75669848607E+01 -.38346804909E+01 -.13931942730E+01 -.74293238950E+00
 -.49325774777E+00 0.29992858388E+00 0.83872195408E+00 0.13614067531E+01 0.17356750359E+01
 0.20867996946E+01 0.23320358002E+01 0.25581369572E+01 0.26980775112E+01 0.28219804979E+01
 0.28715870229E+01 0.29071357228E+01 0.28715870229E+01 0.28219804981E+01 0.26980775114E+01
 0.25581369575E+01 0.23320358005E+01 0.20867996949E+01 0.17356750363E+01 0.13614067535E+01
 0.83872195451E+00 0.29992858433E+00 -.49325774732E+00 -.74293238904E+00 -.13931942726E+01
 -.38346804904E+01 -.75669848603E+01 -.11771788889E+02 -.15714588656E+02 -.19777652976E+02
 -.23794454733E+02 -.27497183274E+02 -.30483253286E+02 -.32691995638E+02 -.33988748931E+02
 -.30474580095E+02 -.30042781904E+02 -.28736754759E+02 -.26622519010E+02 -.23794454733E+02
 -.20476000950E+02 -.16910759032E+02 -.13277146977E+02 -.95146677272E+01 -.56281515682E+01
 -.25654268678E+01 -.94292140437E+00 -.73328525575E+00 -.24281118124E+00 0.48956090587E+00
 0.98072738117E+00 0.14745624344E+01 0.18136804742E+01 0.21542842561E+01 0.23726005376E+01
 0.25962950244E+01 0.27166791061E+01 0.28468235857E+01 0.28814136451E+01 0.29277607310E+01
 0.28814136451E+01 0.28468235858E+01 0.27166791063E+01 0.25962950247E+01 0.23726005379E+01
 0.21542842565E+01 0.18136804746E+01 0.14745624348E+01 0.98072738162E+00 0.48956090634E+00
 -.24281118077E+00 -.73328525527E+00 -.94292140390E+00 -.25654268673E+01 -.56281515678E+01
 -.95146677268E+01 -.13277146976E+02 -.16910759031E+02 -.20476000950E+02 -.23794454733E+02
 -.26622519010E+02 -.28736754758E+02 -.30042781904E+02 -.25793999244E+02 -.25417726282E+02
 -.24194476199E+02 -.22311802943E+02 -.19777652977E+02 -.16910759032E+02 -.13771512439E+02
 -.10536598238E+02 -.68961948759E+01 -.36767527073E+01 -.14903548997E+01 -.75645218840E+00
 -.63248703306E+00 0.10102331682E+00 0.65865992383E+00 0.11735388362E+01 0.15722097339E+01
 0.19293523257E+01 0.22039773996E+01 0.24420254782E+01 0.26181610257E+01 0.27601052931E+01
 0.28509813979E+01 0.29114931422E+01 0.29262711318E+01 0.29114931423E+01 0.28509813981E+01
 0.27601052933E+01 0.26181610259E+01 0.24420254785E+01 0.22039774000E+01 0.19293523261E+01
 0.15722097343E+01 0.11735388367E+01 0.65865992432E+00 0.10102331731E+00 -.63248703257E+00
 -.75645218791E+00 -.14903548992E+01 -.36767527068E+01 -.68961948755E+01 -.10536598237E+02
 -.13771512438E+02 -.16910759031E+02 -.19777652977E+02 -.22311802943E+02 -.24194476198E+02
 -.25417726282E+02 -.20827242772E+02 -.20456360944E+02 -.19435383354E+02 -.17787323753E+02
 -.15714588657E+02 -.13277146977E+02 -.10536598238E+02 -.73560368774E+01 -.43095946448E+01
 -.20497772782E+01 -.84179812508E+00 -.77067211649E+00 -.27390496231E+00 0.39234328182E+00
 0.88039681610E+00 0.13492638374E+01 0.17003385688E+01 0.20341560246E+01 0.22739173957E+01
 0.25032996937E+01 0.26504196464E+01 0.27949858944E+01 0.28652708319E+01 0.29355706250E+01
 0.29348950392E+01 0.29355706251E+01 0.28652708320E+01 0.27949858946E+01 0.26504196466E+01
 0.25032996940E+01 0.22739173960E+01 0.20341560250E+01 0.17003385693E+01 0.13492638379E+01
 0.88039681660E+00 0.39234328233E+00 -.27390496179E+00 -.77067211598E+00 -.84179812458E+00
 -.20497772778E+01 -.43095946443E+01 -.73560368770E+01 -.10536598237E+02 -.13277146976E+02
 -.15714588656E+02 -.17787323752E+02 -.19435383354E+02 -.20456360944E+02 -.16004453471E+02
 -.15716709109E+02 -.14890565173E+02 -.13557358480E+02 -.11771788889E+02 -.95146677272E+01
 -.68961948759E+01 -.43095946448E+01 -.22744701647E+01 -.95446827714E+00 -.78909505775E+00
 -.52147472312E+00 0.15943665360E+00 0.65030439716E+00 0.11358055806E+01 0.15042934669E+01
 0.18565842781E+01 0.21198047217E+01 0.23679401845E+01 0.25430135549E+01 0.27080965635E+01
 0.28079228221E+01 0.29004161548E+01 0.29342488339E+01 0.29627526334E+01 0.29342488340E+01
 0.29004161549E+01 0.28079228223E+01 0.27080965638E+01 0.25430135552E+01 0.23679401849E+01
 0.21198047222E+01 0.18565842786E+01 0.15042934674E+01 0.11358055811E+01 0.65030439770E+00
 0.15943665414E+00 -.52147472259E+00 -.78909505724E+00 -.95446827665E+00 -.22744701642E+01
 -.43095946444E+01 -.68961948756E+01 -.95146677268E+01 -.11771788889E+02 -.13557358480E+02
 -.14890565173E+02 -.15716709109E+02 -.11486361667E+02 -.11242410447E+02 -.10478362153E+02
 -.92487734047E+01 -.75669848607E+01 -.56281515682E+01 -.36767527073E+01 -.20497772782E+01
 -.95446827714E+00 -.78817566095E+00 -.62924307469E+00 -.44774055281E-02 0.49207271458E+00
 0.96055758157E+00 0.13454577192E+01 0.16953996934E+01 0.19810154750E+01 0.22339067258E+01
 0.24355371977E+01 0.26085299913E+01 0.27371987578E+01 0.28430875192E+01 0.29107702823E+01
 0.29569645444E+01 0.29672401026E+01 0.29569645445E+01 0.29107702825E+01 0.28430875194E+01
 0.27371987581E+01 0.26085299917E+01 0.24355371981E+01 0.22339067263E+01 0.19810154755E+01
 0.16953996940E+01 0.13454577197E+01 0.96055758214E+00 0.49207271515E+00 -.44774049682E-02
 -.62924307414E+00 -.78817566044E+00 -.95446827666E+00 -.20497772778E+01 -.36767527069E+01
 -.56281515679E+01 -.75669848604E+01 -.92487734045E+01 -.10478362153E+02 -.11242410447E+02
 -.68996060865E+01 -.66734999707E+01 -.60430007280E+01 -.50444966643E+01 -.38346804909E+01
 -.25654268678E+01 -.14903548997E+01 -.84179812508E+00 -.78909505775E+00 -.62924307469E+00
 -.62846925126E-01 0.40939129559E+00 0.84823304656E+00 0.12299778140E+01 0.15700949649E+01
 0.18632541393E+01 0.21170899881E+01 0.23323788307E+01 0.25118825882E+01 0.26594973442E+01
 0.27774255697E+01 0.28663025575E+01 0.29278678387E+01 0.29647781710E+01 0.29766051964E+01
 0.29647781711E+01 0.29278678389E+01 0.28663025577E+01 0.27774255700E+01 0.26594973445E+01
 0.25118825886E+01 0.23323788312E+01 0.21170899886E+01 0.18632541399E+01 0.15700949655E+01
 0.12299778146E+01 0.84823304716E+00 0.40939129618E+00 -.62846924557E-01 -.62924307414E+00
 -.78909505725E+00 -.84179812462E+00 -.14903548993E+01 -.25654268674E+01 -.38346804906E+01
 -.50444966641E+01 -.60430007279E+01 -.66734999706E+01 -.30533725860E+01 -.29209304501E+01
 -.25320668055E+01 -.19857957549E+01 -.13931942730E+01 -.94292140437E+00 -.75645218840E+00
 -.77067211649E+00 -.52147472312E+00 -.44774055281E-02 0.40939129559E+00 0.80981008361E+00
 0.11686828624E+01 0.14909787587E+01 0.17772854811E+01 0.20265080199E+01 0.22440238756E+01
 0.24268277132E+01 0.25833016525E+01 0.27088324749E+01 0.28099466690E+01 0.28856967643E+01
 0.29413550556E+01 0.29724283951E+01 0.29843449394E+01 0.29724283952E+01 0.29413550557E+01
 0.28856967645E+01 0.28099466693E+01 0.27088324754E+01 0.25833016530E+01 0.24268277137E+01
 0.22440238762E+01 0.20265080205E+01 0.17772854817E+01 0.14909787594E+01 0.11686828631E+01
 0.80981008423E+00 0.40939129619E+00 -.44774049605E-02 -.52147472259E+00 -.77067211601E+00
 -.75645218797E+00 -.94292140401E+00 -.13931942727E+01 -.19857957546E+01 -.25320668053E+01
 -.29209304500E+01 -.10111240477E+01 -.97084534096E+00 -.88218096796E+00 -.78443128752E+00
 -.74293238950E+00 -.73328525575E+00 -.63248703306E+00 -.27390496231E+00 0.15943665360E+00
 0.49207271458E+00 0.84823304656E+00 0.11686828624E+01 0.14639089051E+01 0.17319972336E+01
 0.19689559618E+01 0.21798133252E+01 0.23599992433E+01 0.25172838001E+01 0.26456184315E+01
 0.27539827789E+01 0.28392745136E+01 0.29051110995E+01 0.29484953828E+01 0.29760536964E+01
 0.29835418808E+01 0.29760536965E+01 0.29484953830E+01 0.29051110997E+01 0.28392745140E+01
 0.27539827793E+01 0.26456184320E+01 0.25172838007E+01 0.23599992439E+01 0.21798133258E+01
 0.19689559624E+01 0.17319972343E+01 0.14639089057E+01 0.11686828631E+01 0.84823304719E+00
 0.49207271518E+00 0.15943665415E+00 -.27390496181E+00 -.63248703262E+00 -.73328525537E+00
 -.74293238919E+00 -.78443128728E+00 -.88218096780E+00 -.97084534088E+00 -.69344492070E+00
 -.69175129518E+00 -.67294541279E+00 -.62483496052E+00 -.49325774777E+00 -.24281118124E+00
 0.10102331682E+00 0.39234328182E+00 0.65030439716E+00 0.96055758157E+00 0.12299778140E+01
 0.14909787587E+01 0.17319972336E+01 0.19491981055E+01 0.21460985430E+01 0.23172116958E+01
 0.24689396590E+01 0.25952106786E+01 0.27051257951E+01 0.27926401408E+01 0.28623034231E+01
 0.29144551019E+01 0.29538456125E+01 0.29756647352E+01 0.29843449394E+01 0.29756647353E+01
 0.29538456127E+01 0.29144551022E+01 0.28623034235E+01 0.27926401413E+01 0.27051257956E+01
 0.25952106792E+01 0.24689396597E+01 0.23172116964E+01 0.21460985437E+01 0.19491981062E+01
 0.17319972343E+01 0.14909787594E+01 0.12299778146E+01 0.96055758219E+00 0.65030439774E+00
 0.39234328235E+00 0.10102331728E+00 -.24281118084E+00 -.49325774745E+00 -.62483496027E+00
 -.67294541262E+00 -.69175129510E+00 -.16607512447E+00 -.13397098876E+00 -.43175937801E-01
 0.11082668567E+00 0.29992858388E+00 0.48956090587E+00 0.65865992383E+00 0.88039681610E+00
 0.11358055806E+01 0.13454577192E+01 0.15700949649E+01 0.17772854811E+01 0.19689559618E+01
 0.21460985430E+01 0.23024761307E+01 0.24434580323E+01 0.25627763783E+01 0.26686412216E+01
 0.27532749490E+01 0.28244495625E+01 0.28824012710E+01 0.29268474436E+01 0.29547412313E+01
 0.29721526513E+01 0.29766051963E+01 0.29721526514E+01 0.29547412315E+01 0.29268474440E+01
 0.28824012714E+01 0.28244495630E+01 0.27532749496E+01 0.26686412222E+01 0.25627763790E+01
 0.24434580330E+01 0.23024761314E+01 0.21460985437E+01 0.19689559625E+01 0.17772854818E+01
 0.15700949656E+01 0.13454577198E+01 0.11358055812E+01 0.88039681665E+00 0.65865992432E+00
 0.48956090629E+00 0.29992858422E+00 0.11082668593E+00 -.43175937626E-01 -.13397098867E+00
 0.60499375878E+00 0.62025568745E+00 0.66864485911E+00 0.73862776029E+00 0.83872195408E+00
 0.98072738117E+00 0.11735388362E+01 0.13492638374E+01 0.15042934669E+01 0.16953996934E+01
 0.18632541393E+01 0.20265080199E+01 0.21798133252E+01 0.23172116958E+01 0.24434580323E+01
 0.25515814964E+01 0.26491246102E+01 0.27275575355E+01 0.27970696915E+01 0.28539352578E+01
 0.28948133183E+01 0.29239943890E+01 0.29476838867E+01 0.29614702963E+01 0.29672401026E+01
 0.29614702964E+01 0.29476838869E+01 0.29239943893E+01 0.28948133187E+01 0.28539352583E+01
 0.27970696921E+01 0.27275575362E+01 0.26491246109E+01 0.25515814971E+01 0.24434580331E+01
 0.23172116965E+01 0.21798133259E+01 0.20265080207E+01 0.18632541400E+01 0.16953996941E+01
 0.15042934675E+01 0.13492638380E+01 0.11735388367E+01 0.98072738161E+00 0.83872195443E+00
 0.73862776056E+00 0.66864485929E+00 0.62025568754E+00 0.11046185401E+01 0.11219948648E+01
 0.11697371783E+01 0.12539779764E+01 0.13614067531E+01 0.14745624344E+01 0.15722097339E+01
 0.17003385688E+01 0.18565842781E+01 0.19810154750E+01 0.21170899881E+01 0.22440238756E+01
 0.23599992433E+01 0.24689396590E+01 0.25627763783E+01 0.26491246102E+01 0.27186768550E+01
 0.27825391972E+01 0.28332512688E+01 0.28685352499E+01 0.29018878576E+01 0.29319263128E+01
 0.29502687235E+01 0.29605956207E+01 0.29627526334E+01 0.29605956208E+01 0.29502687237E+01
 0.29319263131E+01 0.29018878580E+01 0.28685352505E+01 0.28332512695E+01 0.27825391978E+01
 0.27186768557E+01 0.26491246110E+01 0.25627763791E+01 0.24689396598E+01 0.23599992441E+01
 0.22440238764E+01 0.21170899888E+01 0.19810154757E+01 0.18565842787E+01 0.17003385694E+01
 0.15722097344E+01 0.14745624348E+01 0.13614067535E+01 0.12539779767E+01 0.11697371785E+01
 0.11219948649E+01 0.16059759877E+01 0.16142220064E+01 0.16426746813E+01 0.16810195591E+01
 0.17356750359E+01 0.18136804742E+01 0.19293523257E+01 0.20341560246E+01 0.21198047217E+01
 0.22339067258E+01 0.23323788307E+01 0.24268277132E+01 0.25172838001E+01 0.25952106786E+01
 0.26686412216E+01 0.27275575355E+01 0.27825391972E+01 0.28256900973E+01 0.28550578765E+01
 0.28906487587E+01 0.29172365777E+01 0.29263930048E+01 0.29311528067E+01 0.29329200103E+01
 0.29348950391E+01 0.29329200105E+01 0.29311528070E+01 0.29263930052E+01 0.29172365782E+01
 0.28906487592E+01 0.28550578772E+01 0.28256900981E+01 0.27825391979E+01 0.27275575364E+01
 0.26686412224E+01 0.25952106795E+01 0.25172838010E+01 0.24268277140E+01 0.23323788315E+01
 0.22339067266E+01 0.21198047224E+01 0.20341560252E+01 0.19293523263E+01 0.18136804747E+01
 0.17356750363E+01 0.16810195594E+01 0.16426746815E+01 0.16142220065E+01 0.19356116974E+01
 0.19460948917E+01 0.19724849238E+01 0.20227122387E+01 0.20867996946E+01 0.21542842561E+01
 0.22039773996E+01 0.22739173957E+01 0.23679401845E+01 0.24355371977E+01 0.25118825882E+01
 0.25833016525E+01 0.26456184315E+01 0.27051257951E+01 0.27532749490E+01 0.27970696915E+01
 0.28332512688E+01 0.28550578765E+01 0.28870324128E+01 0.29051333984E+01 0.29030410300E+01
 0.29089852296E+01 0.29162847954E+01 0.29253094694E+01 0.29262711318E+01 0.29253094695E+01
 0.29162847956E+01 0.29089852299E+01 0.29030410306E+01 0.29051333991E+01 0.28870324134E+01
 0.28550578773E+01 0.28332512697E+01 0.27970696923E+01 0.27532749499E+01 0.27051257960E+01
 0.26456184323E+01 0.25833016533E+01 0.25118825890E+01 0.24355371984E+01 0.23679401852E+01
 0.22739173963E+01 0.22039774002E+01 0.21542842566E+01 0.20867996950E+01 0.20227122390E+01
 0.19724849241E+01 0.19460948918E+01 0.22679548003E+01 0.22724436695E+01 0.22876863291E+01
 0.23064058382E+01 0.23320358002E+01 0.23726005376E+01 0.24420254782E+01 0.25032996937E+01
 0.25430135549E+01 0.26085299913E+01 0.26594973442E+01 0.27088324749E+01 0.27539827789E+01
 0.27926401408E+01 0.28244495625E+01 0.28539352578E+01 0.28685352499E+01 0.28906487587E+01
 0.29051333984E+01 0.28948322672E+01 0.29040689389E+01 0.29139086352E+01 0.29245476518E+01
 0.29247565877E+01 0.29277607310E+01 0.29247565878E+01 0.29245476520E+01 0.29139086355E+01
 0.29040689394E+01 0.28948322679E+01 0.29051333992E+01 0.28906487593E+01 0.28685352508E+01
 0.28539352587E+01 0.28244495634E+01 0.27926401417E+01 0.27539827798E+01 0.27088324758E+01
 0.26594973450E+01 0.26085299921E+01 0.25430135556E+01 0.25032996944E+01 0.24420254788E+01
 0.23726005381E+01 0.23320358006E+01 0.23064058385E+01 0.22876863293E+01 0.22724436696E+01
 0.24667423087E+01 0.24715123303E+01 0.24878291748E+01 0.25170625121E+01 0.25581369572E+01
 0.25962950244E+01 0.26181610257E+01 0.26504196464E+01 0.27080965635E+01 0.27371987578E+01
 0.27774255697E+01 0.28099466690E+01 0.28392745136E+01 0.28623034231E+01 0.28824012710E+01
 0.28948133183E+01 0.29018878576E+01 0.29172365777E+01 0.29030410300E+01 0.29040689389E+01
 0.29120952769E+01 0.29173506605E+01 0.29130799508E+01 0.29101603480E+01 0.29071357227E+01
 0.29101603482E+01 0.29130799511E+01 0.29173506609E+01 0.29120952774E+01 0.29040689395E+01
 0.29030410308E+01 0.29172365785E+01 0.29018878583E+01 0.28948133193E+01 0.28824012719E+01
 0.28623034240E+01 0.28392745145E+01 0.28099466699E+01 0.27774255706E+01 0.27371987586E+01
 0.27080965643E+01 0.26504196470E+01 0.26181610262E+01 0.25962950249E+01 0.25581369577E+01
 0.25170625124E+01 0.24878291750E+01 0.24715123304E+01 0.26720607964E+01 0.26740695559E+01
 0.26819896363E+01 0.26889015766E+01 0.26980775112E+01 0.27166791061E+01 0.27601052931E+01
 0.27949858944E+01 0.28079228221E+01 0.28430875192E+01 0.28663025575E+01 0.28856967643E+01
 0.29051110995E+01 0.29144551019E+01 0.29268474436E+01 0.29239943890E+01 0.29319263128E+01
 0.29263930048E+01 0.29089852296E+01 0.29139086352E+01 0.29173506605E+01 0.29096127759E+01
 0.28969832093E+01 0.28884133211E+01 0.28851309418E+01 0.28884133212E+01 0.28969832096E+01
 0.29096127763E+01 0.29173506610E+01 0.29139086357E+01 0.29089852303E+01 0.29263930058E+01
 0.29319263135E+01 0.29239943900E+01 0.29268474446E+01 0.29144551029E+01 0.29051111004E+01
 0.28856967652E+01 0.28663025583E+01 0.28430875200E+01 0.28079228229E+01 0.27949858950E+01
 0.27601052937E+01 0.27166791066E+01 0.26980775116E+01 0.26889015769E+01 0.26819896365E+01
 0.26740695560E+01 0.27619212916E+01 0.27660758398E+01 0.27747914499E+01 0.27954452976E+01
 0.28219804979E+01 0.28468235857E+01 0.28509813979E+01 0.28652708319E+01 0.29004161548E+01
 0.29107702823E+01 0.29278678387E+01 0.29413550556E+01 0.29484953828E+01 0.29538456125E+01
 0.29547412313E+01 0.29476838867E+01 0.29502687235E+01 0.29311528067E+01 0.29162847954E+01
 0.29245476518E+01 0.29130799508E+01 0.28969832093E+01 0.28787476474E+01 0.28722577652E+01
 0.28671922179E+01 0.28722577653E+01 0.28787476477E+01 0.28969832098E+01 0.29130799513E+01
 0.29245476523E+01 0.29162847960E+01 0.29311528077E+01 0.29502687243E+01 0.29476838876E+01
 0.29547412323E+01 0.29538456134E+01 0.29484953838E+01 0.29413550565E+01 0.29278678396E+01
 0.29107702831E+01 0.29004161555E+01 0.28652708326E+01 0.28509813985E+01 0.28468235862E+01
 0.28219804984E+01 0.27954452980E+01 0.27747914501E+01 0.27660758399E+01 0.28631512546E+01
 0.28651963933E+01 0.28685659796E+01 0.28712458999E+01 0.28715870229E+01 0.28814136451E+01
 0.29114931422E+01 0.29355706250E+01 0.29342488339E+01 0.29569645444E+01 0.29647781710E+01
 0.29724283951E+01 0.29760536964E+01 0.29756647352E+01 0.29721526513E+01 0.29614702963E+01
 0.29605956207E+01 0.29329200103E+01 0.29253094694E+01 0.29247565877E+01 0.29101603480E+01
 0.28884133211E+01 0.28722577652E+01 0.28631334368E+01 0.28607991249E+01 0.28631334370E+01
 0.28722577655E+01 0.28884133216E+01 0.29101603486E+01 0.29247565883E+01 0.29253094700E+01
 0.29329200113E+01 0.29605956216E+01 0.29614702971E+01 0.29721526523E+01 0.29756647361E+01
 0.29760536974E+01 0.29724283960E+01 0.29647781719E+01 0.29569645453E+01 0.29342488347E+01
 0.29355706257E+01 0.29114931428E+01 0.28814136456E+01 0.28715870233E+01 0.28712459002E+01
 0.28685659798E+01 0.28651963935E+01 0.28568860727E+01 0.28607991249E+01 0.28671922179E+01
 0.28851309419E+01 0.29071357228E+01 0.29277607310E+01 0.29262711318E+01 0.29348950392E+01
 0.29627526334E+01 0.29672401026E+01 0.29766051964E+01 0.29843449394E+01 0.29835418808E+01
 0.29843449394E+01 0.29766051963E+01 0.29672401026E+01 0.29627526334E+01 0.29348950391E+01
 0.29262711318E+01 0.29277607310E+01 0.29071357227E+01 0.28851309418E+01 0.28671922179E+01
 0.28607991249E+01 0.28568860727E+01 0.28607991251E+01 0.28671922182E+01 0.28851309423E+01
 0.29071357234E+01 0.29277607316E+01 0.29262711324E+01 0.29348950400E+01 0.29627526343E+01
 0.29672401035E+01 0.29766051973E+01 0.29843449403E+01 0.29835418817E+01 0.29843449403E+01
 0.29766051973E+01 0.29672401035E+01 0.29627526342E+01 0.29348950399E+01 0.29262711324E+01
 0.29277607316E+01 0.29071357233E+01 0.28851309422E+01 0.28671922181E+01 0.28607991250E+01
 0.28631512547E+01 0.28651963934E+01 0.28685659797E+01 0.28712459000E+01 0.28715870229E+01
 0.28814136451E+01 0.29114931423E+01 0.29355706251E+01 0.29342488340E+01 0.29569645445E+01
 0.29647781711E+01 0.29724283952E+01 0.29760536965E+01 0.29756647353E+01 0.29721526514E+01
 0.29614702964E+01 0.29605956208E+01 0.29329200105E+01 0.29253094695E+01 0.29247565878E+01
 0.29101603482E+01 0.28884133212E+01 0.28722577653E+01 0.28631334370E+01 0.28607991251E+01
 0.28631334372E+01 0.28722577656E+01 0.28884133217E+01 0.29101603487E+01 0.29247565884E+01
 0.29253094701E+01 0.29329200114E+01 0.29605956217E+01 0.29614702973E+01 0.29721526524E+01
 0.29756647362E+01 0.29760536975E+01 0.29724283961E+01 0.29647781720E+01 0.29569645453E+01
 0.29342488348E+01 0.29355706258E+01 0.29114931429E+01 0.28814136457E+01 0.28715870234E+01
 0.28712459003E+01 0.28685659799E+01 0.28651963935E+01 0.27619212917E+01 0.27660758399E+01
 0.27747914500E+01 0.27954452978E+01 0.28219804981E+01 0.28468235858E+01 0.28509813981E+01
 0.28652708320E+01 0.29004161549E+01 0.29107702825E+01 0.29278678389E+01 0.29413550557E+01
 0.29484953830E+01 0.29538456127E+01 0.29547412315E+01 0.29476838869E+01 0.29502687237E+01
 0.29311528070E+01 0.29162847956E+01 0.29245476520E+01 0.29130799511E+01 0.28969832096E+01
 0.28787476477E+01 0.28722577655E+01 0.28671922182E+01 0.28722577656E+01 0.28787476480E+01
 0.28969832101E+01 0.29130799516E+01 0.29245476525E+01 0.29162847962E+01 0.29311528080E+01
 0.29502687245E+01 0.29476838878E+01 0.29547412325E+01 0.29538456136E+01 0.29484953840E+01
 0.29413550566E+01 0.29278678398E+01 0.29107702833E+01 0.29004161557E+01 0.28652708327E+01
 0.28509813987E+01 0.28468235863E+01 0.28219804985E+01 0.27954452981E+01 0.27747914503E+01
 0.27660758401E+01 0.26720607966E+01 0.26740695561E+01 0.26819896365E+01 0.26889015768E+01
 0.26980775114E+01 0.27166791063E+01 0.27601052933E+01 0.27949858946E+01 0.28079228223E+01
 0.28430875194E+01 0.28663025577E+01 0.28856967645E+01 0.29051110997E+01 0.29144551022E+01
 0.29268474440E+01 0.29239943893E+01 0.29319263131E+01 0.29263930052E+01 0.29089852299E+01
 0.29139086355E+01 0.29173506609E+01 0.29096127763E+01 0.28969832098E+01 0.28884133216E+01
 0.28851309423E+01 0.28884133217E+01 0.28969832101E+01 0.29096127768E+01 0.29173506613E+01
 0.29139086360E+01 0.29089852306E+01 0.29263930062E+01 0.29319263138E+01 0.29239943903E+01
 0.29268474449E+01 0.29144551032E+01 0.29051111007E+01 0.28856967654E+01 0.28663025586E+01
 0.28430875202E+01 0.28079228231E+01 0.27949858952E+01 0.27601052939E+01 0.27166791068E+01
 0.26980775118E+01 0.26889015771E+01 0.26819896367E+01 0.26740695562E+01 0.24667423089E+01
 0.24715123306E+01 0.24878291751E+01 0.25170625124E+01 0.25581369575E+01 0.25962950247E+01
 0.26181610259E+01 0.26504196466E+01 0.27080965638E+01 0.27371987581E+01 0.27774255700E+01
 0.28099466693E+01 0.28392745140E+01 0.28623034235E+01 0.28824012714E+01 0.28948133187E+01
 0.29018878580E+01 0.29172365782E+01 0.29030410306E+01 0.29040689394E+01 0.29120952774E+01
 0.29173506610E+01 0.29130799513E+01 0.29101603486E+01 0.29071357234E+01 0.29101603487E+01
 0.29130799516E+01 0.29173506613E+01 0.29120952778E+01 0.29040689399E+01 0.29030410314E+01
 0.29172365790E+01 0.29018878587E+01 0.28948133197E+01 0.28824012723E+01 0.28623034244E+01
 0.28392745149E+01 0.28099466702E+01 0.27774255709E+01 0.27371987589E+01 0.27080965645E+01
 0.26504196473E+01 0.26181610265E+01 0.25962950252E+01 0.25581369579E+01 0.25170625127E+01
 0.24878291753E+01 0.24715123307E+01 0.22679548005E+01 0.22724436698E+01 0.22876863294E+01
 0.23064058385E+01 0.23320358005E+01 0.23726005379E+01 0.24420254785E+01 0.25032996940E+01
 0.25430135552E+01 0.26085299917E+01 0.26594973445E+01 0.27088324754E+01 0.27539827793E+01
 0.27926401413E+01 0.28244495630E+01 0.28539352583E+01 0.28685352505E+01 0.28906487592E+01
 0.29051333991E+01 0.28948322679E+01 0.29040689395E+01 0.29139086357E+01 0.29245476523E+01
 0.29247565883E+01 0.29277607316E+01 0.29247565884E+01 0.29245476525E+01 0.29139086360E+01
 0.29040689399E+01 0.28948322685E+01 0.29051333999E+01 0.28906487598E+01 0.28685352513E+01
 0.28539352592E+01 0.28244495638E+01 0.27926401422E+01 0.27539827802E+01 0.27088324762E+01
 0.26594973454E+01 0.26085299925E+01 0.25430135559E+01 0.25032996947E+01 0.24420254791E+01
 0.23726005384E+01 0.23320358009E+01 0.23064058388E+01 0.22876863296E+01 0.22724436699E+01
 0.19356116977E+01 0.19460948920E+01 0.19724849242E+01 0.20227122391E+01 0.20867996949E+01
 0.21542842565E+01 0.22039774000E+01 0.22739173960E+01 0.23679401849E+01 0.24355371981E+01
 0.25118825886E+01 0.25833016530E+01 0.26456184320E+01 0.27051257956E+01 0.27532749496E+01
 0.27970696921E+01 0.28332512695E+01 0.28550578772E+01 0.28870324134E+01 0.29051333992E+01
 0.29030410308E+01 0.29089852303E+01 0.29162847960E+01 0.29253094700E+01 0.29262711324E+01
 0.29253094701E+01 0.29162847962E+01 0.29089852306E+01 0.29030410314E+01 0.29051333999E+01
 0.28870324139E+01 0.28550578779E+01 0.28332512703E+01 0.27970696929E+01 0.27532749505E+01
 0.27051257965E+01 0.26456184328E+01 0.25833016538E+01 0.25118825894E+01 0.24355371988E+01
 0.23679401856E+01 0.22739173967E+01 0.22039774006E+01 0.21542842570E+01 0.20867996953E+01
 0.20227122394E+01 0.19724849244E+01 0.19460948921E+01 0.16059759881E+01 0.16142220068E+01
 0.16426746817E+01 0.16810195595E+01 0.17356750363E+01 0.18136804746E+01 0.19293523261E+01
 0.20341560250E+01 0.21198047222E+01 0.22339067263E+01 0.23323788312E+01 0.24268277137E+01
 0.25172838007E+01 0.25952106792E+01 0.26686412222E+01 0.27275575362E+01 0.27825391978E+01
 0.28256900981E+01 0.28550578773E+01 0.28906487593E+01 0.29172365785E+01 0.29263930058E+01
 0.29311528077E+01 0.29329200113E+01 0.29348950400E+01 0.29329200114E+01 0.29311528080E+01
 0.29263930062E+01 0.29172365790E+01 0.28906487598E+01 0.28550578779E+01 0.28256900988E+01
 0.27825391985E+01 0.27275575370E+01 0.26686412230E+01 0.25952106801E+01 0.25172838015E+01
 0.24268277145E+01 0.23323788319E+01 0.22339067270E+01 0.21198047228E+01 0.20341560256E+01
 0.19293523267E+01 0.18136804750E+01 0.17356750367E+01 0.16810195598E+01 0.16426746819E+01
 0.16142220068E+01 0.11046185405E+01 0.11219948651E+01 0.11697371787E+01 0.12539779768E+01
 0.13614067535E+01 0.14745624348E+01 0.15722097343E+01 0.17003385693E+01 0.18565842786E+01
 0.19810154755E+01 0.21170899886E+01 0.22440238762E+01 0.23599992439E+01 0.24689396597E+01
 0.25627763790E+01 0.26491246109E+01 0.27186768557E+01 0.27825391979E+01 0.28332512697E+01
 0.28685352508E+01 0.29018878583E+01 0.29319263135E+01 0.29502687243E+01 0.29605956216E+01
 0.29627526343E+01 0.29605956217E+01 0.29502687245E+01 0.29319263138E+01 0.29018878587E+01
 0.28685352513E+01 0.28332512703E+01 0.27825391985E+01 0.27186768565E+01 0.26491246116E+01
 0.25627763798E+01 0.24689396605E+01 0.23599992447E+01 0.22440238770E+01 0.21170899894E+01
 0.19810154762E+01 0.18565842792E+01 0.17003385699E+01 0.15722097348E+01 0.14745624352E+01
 0.13614067539E+01 0.12539779771E+01 0.11697371789E+01 0.11219948652E+01 0.60499375919E+00
 0.62025568785E+00 0.66864485952E+00 0.73862776071E+00 0.83872195451E+00 0.98072738162E+00
 0.11735388367E+01 0.13492638379E+01 0.15042934674E+01 0.16953996940E+01 0.18632541399E+01
 0.20265080205E+01 0.21798133258E+01 0.23172116964E+01 0.24434580330E+01 0.25515814971E+01
 0.26491246110E+01 0.27275575364E+01 0.27970696923E+01 0.28539352587E+01 0.28948133193E+01
 0.29239943900E+01 0.29476838876E+01 0.29614702971E+01 0.29672401035E+01 0.29614702973E+01
 0.29476838878E+01 0.29239943903E+01 0.28948133197E+01 0.28539352592E+01 0.27970696929E+01
 0.27275575370E+01 0.26491246116E+01 0.25515814978E+01 0.24434580338E+01 0.23172116972E+01
 0.21798133266E+01 0.20265080213E+01 0.18632541406E+01 0.16953996947E+01 0.15042934681E+01
 0.13492638384E+01 0.11735388372E+01 0.98072738205E+00 0.83872195487E+00 0.73862776098E+00