unknown system                          
   1.0000000000000000     
     4.192570    0.000000    0.000000
     0.000000    4.192570    0.000000
    -0.000000    0.000000    4.192570
   Na
     2
Direct
  0.000000  0.000000  0.000000
  0.500000  0.500000  0.500000

   48   48   48
 -.41060344074E+02 -.40679224778E+02 -.39453568122E+02 -.37424690083E+02 -.34483745966E+02
 -.30710777785E+02 -.26157661760E+02 -.21305405978E+02 -.16535946741E+02 -.12109630059E+02
 -.75920271175E+01 -.35821874022E+01 -.10794936264E+01 -.49278425803E+00 -.17646862484E+00
 0.62648831898E+00 0.11438904536E+01 0.16575761942E+01 0.20050066548E+01 0.23414911957E+01
 0.25547617742E+01 0.27582002545E+01 0.28610191856E+01 0.29564848644E+01 0.29598928227E+01
 0.29564848645E+01 0.28610191857E+01 0.27582002547E+01 0.25547617744E+01 0.23414911960E+01
 0.20050066551E+01 0.16575761945E+01 0.11438904540E+01 0.62648831939E+00 -.17646862442E+00
 -.49278425759E+00 -.10794936259E+01 -.35821874018E+01 -.75920271170E+01 -.12109630059E+02
 -.16535946741E+02 -.21305405978E+02 -.26157661760E+02 -.30710777785E+02 -.34483745966E+02
 -.37424690083E+02 -.39453568122E+02 -.40679224778E+02 -.40679224778E+02 -.40287509030E+02
 -.39053234466E+02 -.36995016680E+02 -.34040523659E+02 -.30273290678E+02 -.25783999297E+02
 -.20965613481E+02 -.16236474963E+02 -.11875116748E+02 -.73669263947E+01 -.34313749492E+01
 -.10214603435E+01 -.49105888028E+00 -.15265259665E+00 0.64832266449E+00 0.11567496978E+01
 0.16706683427E+01 0.20119564575E+01 0.23486399335E+01 0.25574049956E+01 0.27643228478E+01
 0.28627071198E+01 0.29612583983E+01 0.29605951593E+01 0.29612583984E+01 0.28627071199E+01
 0.27643228480E+01 0.25574049958E+01 0.23486399338E+01 0.20119564578E+01 0.16706683431E+01
 0.11567496982E+01 0.64832266490E+00 -.15265259622E+00 -.49105887984E+00 -.10214603431E+01
 -.34313749487E+01 -.73669263943E+01 -.11875116748E+02 -.16236474963E+02 -.20965613480E+02
 -.25783999297E+02 -.30273290678E+02 -.34040523658E+02 -.36995016679E+02 -.39053234466E+02
 -.40287509030E+02 -.39453568122E+02 -.39053234466E+02 -.37818124671E+02 -.35750963724E+02
 -.32804545840E+02 -.29039513600E+02 -.24597591192E+02 -.19936334937E+02 -.15430815132E+02
 -.11133518260E+02 -.67220656759E+01 -.29994624552E+01 -.86848465744E+00 -.48953011139E+00
 -.72415375838E-01 0.70532571581E+00 0.12012341690E+01 0.17036799280E+01 0.20357329342E+01
 0.23685286094E+01 0.25702162571E+01 0.27744270797E+01 0.28684303150E+01 0.29677781730E+01
 0.29647897631E+01 0.29677781730E+01 0.28684303151E+01 0.27744270799E+01 0.25702162574E+01
 0.23685286097E+01 0.20357329345E+01 0.17036799283E+01 0.12012341693E+01 0.70532571623E+00
 -.72415375404E-01 -.48953011094E+00 -.86848465700E+00 -.29994624548E+01 -.67220656755E+01
 -.11133518260E+02 -.15430815131E+02 -.19936334937E+02 -.24597591192E+02 -.29039513600E+02
 -.32804545840E+02 -.35750963724E+02 -.37818124671E+02 -.39053234466E+02 -.37424690083E+02
 -.36995016680E+02 -.35750963724E+02 -.33627297775E+02 -.30686641016E+02 -.26967994731E+02
 -.22749219053E+02 -.18332374210E+02 -.14102826674E+02 -.99397183797E+01 -.56943066609E+01
 -.23613418235E+01 -.68454087346E+00 -.47837000749E+00 0.70739884924E-01 0.79007931630E+00
 0.12770615103E+01 0.17536025972E+01 0.20780752107E+01 0.23958203208E+01 0.25926668733E+01
 0.27909699100E+01 0.28818266313E+01 0.29785004581E+01 0.29746638586E+01 0.29785004582E+01
 0.28818266315E+01 0.27909699102E+01 0.25926668736E+01 0.23958203211E+01 0.20780752111E+01
 0.17536025976E+01 0.12770615107E+01 0.79007931673E+00 0.70739885370E-01 -.47837000704E+00
 -.68454087300E+00 -.23613418230E+01 -.56943066605E+01 -.99397183793E+01 -.14102826673E+02
 -.18332374210E+02 -.22749219053E+02 -.26967994730E+02 -.30686641016E+02 -.33627297774E+02
 -.35750963724E+02 -.36995016680E+02 -.34483745966E+02 -.34040523659E+02 -.32804545840E+02
 -.30686641016E+02 -.27820746487E+02 -.24228040334E+02 -.20276773662E+02 -.16243452548E+02
 -.12379306877E+02 -.82794859954E+01 -.44097624277E+01 -.16331263680E+01 -.55126892715E+00
 -.42505155189E+00 0.27816534823E+00 0.88819140832E+00 0.13905875071E+01 0.18086990658E+01
 0.21441703548E+01 0.24239797190E+01 0.26328426066E+01 0.28009297612E+01 0.29069806917E+01
 0.29808992785E+01 0.29958169134E+01 0.29808992786E+01 0.29069806918E+01 0.28009297614E+01
 0.26328426069E+01 0.24239797193E+01 0.21441703551E+01 0.18086990662E+01 0.13905875076E+01
 0.88819140876E+00 0.27816534869E+00 -.42505155142E+00 -.55126892668E+00 -.16331263676E+01
 -.44097624273E+01 -.82794859950E+01 -.12379306877E+02 -.16243452547E+02 -.20276773662E+02
 -.24228040334E+02 -.27820746487E+02 -.30686641016E+02 -.32804545840E+02 -.34040523659E+02
 -.30710777785E+02 -.30273290678E+02 -.29039513600E+02 -.26967994731E+02 -.24228040334E+02
 -.20933782430E+02 -.17448237513E+02 -.13849117599E+02 -.10188832084E+02 -.63053310446E+01
 -.30243952604E+01 -.98185031596E+00 -.52054995659E+00 -.25646584586E+00 0.50732487055E+00
 0.10144682855E+01 0.15218589725E+01 0.18779720965E+01 0.22234034292E+01 0.24563867399E+01
 0.26807116005E+01 0.28141505456E+01 0.29396809943E+01 0.29843935838E+01 0.30230327622E+01
 0.29843935839E+01 0.29396809945E+01 0.28141505458E+01 0.26807116008E+01 0.24563867402E+01
 0.22234034296E+01 0.18779720969E+01 0.15218589729E+01 0.10144682860E+01 0.50732487102E+00
 -.25646584538E+00 -.52054995611E+00 -.98185031548E+00 -.30243952600E+01 -.63053310442E+01
 -.10188832084E+02 -.13849117598E+02 -.17448237513E+02 -.20933782430E+02 -.24228040334E+02
 -.26967994731E+02 -.29039513600E+02 -.30273290678E+02 -.26157661760E+02 -.25783999297E+02
 -.24597591192E+02 -.22749219053E+02 -.20276773662E+02 -.17448237513E+02 -.14350840477E+02
 -.11145822293E+02 -.76328828853E+01 -.42262012441E+01 -.17597597936E+01 -.59299174673E+00
 -.51127245285E+00 0.59411766800E-01 0.70875867236E+00 0.11910287441E+01 0.16431076964E+01
 0.19780726955E+01 0.22926583617E+01 0.25117638836E+01 0.27191553108E+01 0.28412941819E+01
 0.29597230906E+01 0.29993291334E+01 0.30379549387E+01 0.29993291335E+01 0.29597230908E+01
 0.28412941821E+01 0.27191553111E+01 0.25117638840E+01 0.22926583621E+01 0.19780726959E+01
 0.16431076968E+01 0.11910287446E+01 0.70875867285E+00 0.59411767305E-01 -.51127245234E+00
 -.59299174623E+00 -.17597597932E+01 -.42262012437E+01 -.76328828849E+01 -.11145822293E+02
 -.14350840477E+02 -.17448237513E+02 -.20276773662E+02 -.22749219053E+02 -.24597591192E+02
 -.25783999297E+02 -.21305405978E+02 -.20965613481E+02 -.19936334937E+02 -.18332374210E+02
 -.16243452548E+02 -.13849117599E+02 -.11145822293E+02 -.81084737014E+01 -.49028603407E+01
 -.24243136316E+01 -.83205072135E+00 -.54417575932E+00 -.30170173649E+00 0.41562253566E+00
 0.90247874491E+00 0.13990093297E+01 0.17536399675E+01 0.21048601005E+01 0.23488196004E+01
 0.25883163973E+01 0.27400418980E+01 0.28909770828E+01 0.29630044344E+01 0.30357763630E+01
 0.30348686953E+01 0.30357763631E+01 0.29630044346E+01 0.28909770830E+01 0.27400418983E+01
 0.25883163976E+01 0.23488196008E+01 0.21048601010E+01 0.17536399680E+01 0.13990093302E+01
 0.90247874543E+00 0.41562253619E+00 -.30170173596E+00 -.54417575880E+00 -.83205072084E+00
 -.24243136312E+01 -.49028603403E+01 -.81084737010E+01 -.11145822293E+02 -.13849117598E+02
 -.16243452548E+02 -.18332374210E+02 -.19936334937E+02 -.20965613481E+02 -.16535946741E+02
 -.16236474963E+02 -.15430815132E+02 -.14102826674E+02 -.12379306877E+02 -.10188832084E+02
 -.76328828853E+01 -.49028603407E+01 -.26732577208E+01 -.10498326999E+01 -.53900131486E+00
 -.48766398277E+00 0.14719480567E+00 0.68188174617E+00 0.11650106819E+01 0.15614530875E+01
 0.19117986313E+01 0.21970131137E+01 0.24411313981E+01 0.26356557210E+01 0.27931614909E+01
 0.29087650619E+01 0.29926645656E+01 0.30403536411E+01 0.30578147080E+01 0.30403536412E+01
 0.29926645658E+01 0.29087650621E+01 0.27931614912E+01 0.26356557214E+01 0.24411313985E+01
 0.21970131142E+01 0.19117986318E+01 0.15614530880E+01 0.11650106824E+01 0.68188174672E+00
 0.14719480622E+00 -.48766398223E+00 -.53900131433E+00 -.10498326994E+01 -.26732577203E+01
 -.49028603403E+01 -.76328828849E+01 -.10188832084E+02 -.12379306877E+02 -.14102826673E+02
 -.15430815132E+02 -.16236474963E+02 -.12109630059E+02 -.11875116748E+02 -.11133518260E+02
 -.99397183797E+01 -.82794859954E+01 -.63053310446E+01 -.42262012441E+01 -.24243136316E+01
 -.10498326999E+01 -.54159753308E+00 -.55071818747E+00 -.32615805083E-01 0.52240534843E+00
 0.98160366559E+00 0.13980273862E+01 0.17445738621E+01 0.20530626731E+01 0.23029347769E+01
 0.25228602235E+01 0.26904746497E+01 0.28354054521E+01 0.29352796042E+01 0.30152230194E+01
 0.30528583435E+01 0.30732381469E+01 0.30528583436E+01 0.30152230196E+01 0.29352796045E+01
 0.28354054524E+01 0.26904746501E+01 0.25228602239E+01 0.23029347774E+01 0.20530626736E+01
 0.17445738626E+01 0.13980273868E+01 0.98160366617E+00 0.52240534901E+00 -.32615804512E-01
 -.55071818692E+00 -.54159753255E+00 -.10498326994E+01 -.24243136312E+01 -.42262012437E+01
 -.63053310443E+01 -.82794859952E+01 -.99397183795E+01 -.11133518260E+02 -.11875116748E+02
 -.75920271175E+01 -.73669263947E+01 -.67220656759E+01 -.56943066609E+01 -.44097624277E+01
 -.30243952604E+01 -.17597597936E+01 -.83205072135E+00 -.53900131486E+00 -.55071818747E+00
 -.93698547852E-01 0.43542010679E+00 0.86746347113E+00 0.12762428684E+01 0.16171083480E+01
 0.19288181923E+01 0.21841447862E+01 0.24132635718E+01 0.25930724318E+01 0.27527354439E+01
 0.28681988337E+01 0.29653838736E+01 0.30242276835E+01 0.30681533748E+01 0.30754119424E+01
 0.30681533749E+01 0.30242276837E+01 0.29653838739E+01 0.28681988340E+01 0.27527354443E+01
 0.25930724323E+01 0.24132635723E+01 0.21841447867E+01 0.19288181929E+01 0.16171083486E+01
 0.12762428690E+01 0.86746347174E+00 0.43542010739E+00 -.93698547271E-01 -.55071818692E+00
 -.53900131435E+00 -.83205072088E+00 -.17597597932E+01 -.30243952601E+01 -.44097624274E+01
 -.56943066607E+01 -.67220656757E+01 -.73669263946E+01 -.35821874022E+01 -.34313749492E+01
 -.29994624552E+01 -.23613418235E+01 -.16331263680E+01 -.98185031596E+00 -.59299174673E+00
 -.54417575932E+00 -.48766398277E+00 -.32615805083E-01 0.43542010679E+00 0.82877925023E+00
 0.12113277878E+01 0.15367301907E+01 0.18382848186E+01 0.20916759693E+01 0.23201789805E+01
 0.25065648147E+01 0.26716146663E+01 0.27978244661E+01 0.29066827642E+01 0.29833002816E+01
 0.30433852964E+01 0.30727305371E+01 0.30873813801E+01 0.30727305372E+01 0.30433852966E+01
 0.29833002819E+01 0.29066827645E+01 0.27978244665E+01 0.26716146668E+01 0.25065648153E+01
 0.23201789811E+01 0.20916759699E+01 0.18382848193E+01 0.15367301914E+01 0.12113277884E+01
 0.82877925086E+00 0.43542010740E+00 -.32615804504E-01 -.48766398223E+00 -.54417575883E+00
 -.59299174630E+00 -.98185031559E+00 -.16331263677E+01 -.23613418232E+01 -.29994624551E+01
 -.34313749491E+01 -.10794936264E+01 -.10214603435E+01 -.86848465744E+00 -.68454087346E+00
 -.55126892715E+00 -.52054995659E+00 -.51127245285E+00 -.30170173649E+00 0.14719480567E+00
 0.52240534843E+00 0.86746347113E+00 0.12113277878E+01 0.15091686760E+01 0.17907805014E+01
 0.20326318413E+01 0.22529995222E+01 0.24378926254E+01 0.26020206552E+01 0.27334156802E+01
 0.28486625404E+01 0.29343498459E+01 0.30030826336E+01 0.30469753835E+01 0.30773387248E+01
 0.30840906507E+01 0.30773387249E+01 0.30469753837E+01 0.30030826339E+01 0.29343498462E+01
 0.28486625408E+01 0.27334156807E+01 0.26020206558E+01 0.24378926260E+01 0.22529995229E+01
 0.20326318420E+01 0.17907805021E+01 0.15091686766E+01 0.12113277885E+01 0.86746347177E+00
 0.52240534904E+00 0.14719480624E+00 -.30170173597E+00 -.51127245239E+00 -.52054995621E+00
 -.55126892683E+00 -.68454087322E+00 -.86848465728E+00 -.10214603434E+01 -.49278425803E+00
 -.49105888028E+00 -.48953011139E+00 -.47837000749E+00 -.42505155189E+00 -.25646584586E+00
 0.59411766800E-01 0.41562253566E+00 0.68188174617E+00 0.98160366559E+00 0.12762428684E+01
 0.15367301907E+01 0.17907805014E+01 0.20123118646E+01 0.22178367046E+01 0.23937067262E+01
 0.25514711037E+01 0.26818612579E+01 0.27970009677E+01 0.28849417110E+01 0.29596200658E+01
 0.30145773250E+01 0.30564069737E+01 0.30779090529E+01 0.30873813801E+01 0.30779090530E+01
 0.30564069739E+01 0.30145773253E+01 0.29596200662E+01 0.28849417115E+01 0.27970009682E+01
 0.26818612585E+01 0.25514711043E+01 0.23937067269E+01 0.22178367053E+01 0.20123118653E+01
 0.17907805021E+01 0.15367301914E+01 0.12762428691E+01 0.98160366623E+00 0.68188174676E+00
 0.41562253620E+00 0.59411767277E-01 -.25646584546E+00 -.42505155156E+00 -.47837000724E+00
 -.48953011122E+00 -.49105888019E+00 -.17646862484E+00 -.15265259665E+00 -.72415375838E-01
 0.70739884924E-01 0.27816534823E+00 0.50732487055E+00 0.70875867236E+00 0.90247874491E+00
 0.11650106819E+01 0.13980273862E+01 0.16171083480E+01 0.18382848186E+01 0.20326318413E+01
 0.22178367046E+01 0.23784655767E+01 0.25249288643E+01 0.26484653363E+01 0.27582851963E+01
 0.28446311203E+01 0.29221832477E+01 0.29804671796E+01 0.30245393424E+01 0.30521705015E+01
 0.30709544251E+01 0.30754119423E+01 0.30709544252E+01 0.30521705017E+01 0.30245393427E+01
 0.29804671800E+01 0.29221832482E+01 0.28446311209E+01 0.27582851970E+01 0.26484653369E+01
 0.25249288650E+01 0.23784655774E+01 0.22178367054E+01 0.20326318421E+01 0.18382848194E+01
 0.16171083487E+01 0.13980273869E+01 0.11650106825E+01 0.90247874547E+00 0.70875867285E+00
 0.50732487098E+00 0.27816534858E+00 0.70739885190E-01 -.72415375660E-01 -.15265259656E+00
 0.62648831898E+00 0.64832266449E+00 0.70532571581E+00 0.79007931630E+00 0.88819140832E+00
 0.10144682855E+01 0.11910287441E+01 0.13990093297E+01 0.15614530875E+01 0.17445738621E+01
 0.19288181923E+01 0.20916759693E+01 0.22529995222E+01 0.23937067262E+01 0.25249288643E+01
 0.26368955373E+01 0.27376700192E+01 0.28187560920E+01 0.28937976384E+01 0.29476834762E+01
 0.29905183287E+01 0.30245527508E+01 0.30521401597E+01 0.30670109037E+01 0.30732381469E+01
 0.30670109038E+01 0.30521401599E+01 0.30245527511E+01 0.29905183292E+01 0.29476834768E+01
 0.28937976390E+01 0.28187560927E+01 0.27376700199E+01 0.26368955380E+01 0.25249288651E+01
 0.23937067270E+01 0.22529995230E+01 0.20916759701E+01 0.19288181931E+01 0.17445738628E+01
 0.15614530881E+01 0.13990093303E+01 0.11910287446E+01 0.10144682860E+01 0.88819140868E+00
 0.79007931658E+00 0.70532571599E+00 0.64832266458E+00 0.11438904536E+01 0.11567496978E+01
 0.12012341690E+01 0.12770615103E+01 0.13905875071E+01 0.15218589725E+01 0.16431076964E+01
 0.17536399675E+01 0.19117986313E+01 0.20530626731E+01 0.21841447862E+01 0.23201789805E+01
 0.24378926254E+01 0.25514711037E+01 0.26484653363E+01 0.27376700192E+01 0.28098464205E+01
 0.28781254764E+01 0.29246482503E+01 0.29671584382E+01 0.30062740606E+01 0.30339749119E+01
 0.30482628786E+01 0.30561631914E+01 0.30578147079E+01 0.30561631915E+01 0.30482628789E+01
 0.30339749123E+01 0.30062740610E+01 0.29671584387E+01 0.29246482510E+01 0.28781254771E+01
 0.28098464212E+01 0.27376700200E+01 0.26484653371E+01 0.25514711045E+01 0.24378926262E+01
 0.23201789813E+01 0.21841447869E+01 0.20530626738E+01 0.19117986320E+01 0.17536399681E+01
 0.16431076969E+01 0.15218589729E+01 0.13905875075E+01 0.12770615106E+01 0.12012341691E+01
 0.11567496979E+01 0.16575761942E+01 0.16706683427E+01 0.17036799280E+01 0.17536025972E+01
 0.18086990658E+01 0.18779720965E+01 0.19780726955E+01 0.21048601005E+01 0.21970131137E+01
 0.23029347769E+01 0.24132635718E+01 0.25065648147E+01 0.26020206552E+01 0.26818612579E+01
 0.27582851963E+01 0.28187560920E+01 0.28781254764E+01 0.29165643381E+01 0.29561678044E+01
 0.29932200307E+01 0.30096654720E+01 0.30175669845E+01 0.30255389527E+01 0.30321829446E+01
 0.30348686952E+01 0.30321829448E+01 0.30255389529E+01 0.30175669849E+01 0.30096654725E+01
 0.29932200312E+01 0.29561678049E+01 0.29165643388E+01 0.28781254772E+01 0.28187560928E+01
 0.27582851972E+01 0.26818612588E+01 0.26020206560E+01 0.25065648156E+01 0.24132635726E+01
 0.23029347777E+01 0.21970131145E+01 0.21048601012E+01 0.19780726961E+01 0.18779720970E+01
 0.18086990662E+01 0.17536025975E+01 0.17036799282E+01 0.16706683428E+01 0.20050066548E+01
 0.20119564575E+01 0.20357329342E+01 0.20780752107E+01 0.21441703548E+01 0.22234034292E+01
 0.22926583617E+01 0.23488196004E+01 0.24411313981E+01 0.25228602235E+01 0.25930724318E+01
 0.26716146663E+01 0.27334156802E+01 0.27970009677E+01 0.28446311203E+01 0.28937976384E+01
 0.29246482503E+01 0.29561678044E+01 0.29878163009E+01 0.29927199637E+01 0.29997071370E+01
 0.30144730363E+01 0.30280871312E+01 0.30356628992E+01 0.30379549387E+01 0.30356628993E+01
 0.30280871314E+01 0.30144730366E+01 0.29997071375E+01 0.29927199644E+01 0.29878163016E+01
 0.29561678050E+01 0.29246482512E+01 0.28937976392E+01 0.28446311212E+01 0.27970009685E+01
 0.27334156810E+01 0.26716146672E+01 0.25930724327E+01 0.25228602243E+01 0.24411313988E+01
 0.23488196010E+01 0.22926583623E+01 0.22234034297E+01 0.21441703552E+01 0.20780752110E+01
 0.20357329344E+01 0.20119564576E+01 0.23414911957E+01 0.23486399335E+01 0.23685286094E+01
 0.23958203208E+01 0.24239797190E+01 0.24563867399E+01 0.25117638836E+01 0.25883163973E+01
 0.26356557210E+01 0.26904746497E+01 0.27527354439E+01 0.27978244661E+01 0.28486625404E+01
 0.28849417110E+01 0.29221832477E+01 0.29476834762E+01 0.29671584382E+01 0.29932200307E+01
 0.29927199637E+01 0.29955717940E+01 0.30126756645E+01 0.30219811484E+01 0.30252275790E+01
 0.30226921216E+01 0.30230327621E+01 0.30226921217E+01 0.30252275793E+01 0.30219811487E+01
 0.30126756649E+01 0.29955717945E+01 0.29927199646E+01 0.29932200314E+01 0.29671584389E+01
 0.29476834772E+01 0.29221832485E+01 0.28849417119E+01 0.28486625413E+01 0.27978244670E+01
 0.27527354448E+01 0.26904746505E+01 0.26356557217E+01 0.25883163980E+01 0.25117638842E+01
 0.24563867404E+01 0.24239797194E+01 0.23958203212E+01 0.23685286096E+01 0.23486399336E+01
 0.25547617742E+01 0.25574049956E+01 0.25702162571E+01 0.25926668733E+01 0.26328426066E+01
 0.26807116005E+01 0.27191553108E+01 0.27400418980E+01 0.27931614909E+01 0.28354054521E+01
 0.28681988337E+01 0.29066827642E+01 0.29343498459E+01 0.29596200658E+01 0.29804671796E+01
 0.29905183287E+01 0.30062740606E+01 0.30096654720E+01 0.29997071370E+01 0.30126756645E+01
 0.30166537486E+01 0.30148841225E+01 0.30041839726E+01 0.30002225498E+01 0.29958169133E+01
 0.30002225499E+01 0.30041839729E+01 0.30148841230E+01 0.30166537491E+01 0.30126756650E+01
 0.29997071377E+01 0.30096654729E+01 0.30062740613E+01 0.29905183297E+01 0.29804671805E+01
 0.29596200668E+01 0.29343498468E+01 0.29066827651E+01 0.28681988345E+01 0.28354054529E+01
 0.27931614916E+01 0.27400418987E+01 0.27191553115E+01 0.26807116010E+01 0.26328426070E+01
 0.25926668737E+01 0.25702162573E+01 0.25574049957E+01 0.27582002545E+01 0.27643228478E+01
 0.27744270797E+01 0.27909699100E+01 0.28009297612E+01 0.28141505456E+01 0.28412941819E+01
 0.28909770828E+01 0.29087650619E+01 0.29352796042E+01 0.29653838736E+01 0.29833002816E+01
 0.30030826336E+01 0.30145773250E+01 0.30245393424E+01 0.30245527508E+01 0.30339749119E+01
 0.30175669845E+01 0.30144730363E+01 0.30219811484E+01 0.30148841225E+01 0.29980413431E+01
 0.29842994425E+01 0.29767656802E+01 0.29746638586E+01 0.29767656803E+01 0.29842994429E+01
 0.29980413436E+01 0.30148841231E+01 0.30219811490E+01 0.30144730369E+01 0.30175669854E+01
 0.30339749128E+01 0.30245527516E+01 0.30245393434E+01 0.30145773259E+01 0.30030826345E+01
 0.29833002825E+01 0.29653838745E+01 0.29352796050E+01 0.29087650626E+01 0.28909770835E+01
 0.28412941826E+01 0.28141505461E+01 0.28009297616E+01 0.27909699103E+01 0.27744270799E+01
 0.27643228479E+01 0.28610191856E+01 0.28627071198E+01 0.28684303150E+01 0.28818266313E+01
 0.29069806917E+01 0.29396809943E+01 0.29597230906E+01 0.29630044344E+01 0.29926645656E+01
 0.30152230194E+01 0.30242276835E+01 0.30433852964E+01 0.30469753835E+01 0.30564069737E+01
 0.30521705015E+01 0.30521401597E+01 0.30482628786E+01 0.30255389527E+01 0.30280871312E+01
 0.30252275790E+01 0.30041839726E+01 0.29842994425E+01 0.29716085753E+01 0.29667786602E+01
 0.29647897631E+01 0.29667786603E+01 0.29716085756E+01 0.29842994430E+01 0.30041839732E+01
 0.30252275797E+01 0.30280871318E+01 0.30255389535E+01 0.30482628796E+01 0.30521401605E+01
 0.30521705025E+01 0.30564069747E+01 0.30469753845E+01 0.30433852973E+01 0.30242276844E+01
 0.30152230202E+01 0.29926645664E+01 0.29630044351E+01 0.29597230913E+01 0.29396809949E+01
 0.29069806921E+01 0.28818266317E+01 0.28684303152E+01 0.28627071199E+01 0.29564848644E+01
 0.29612583983E+01 0.29677781730E+01 0.29785004581E+01 0.29808992785E+01 0.29843935838E+01
 0.29993291334E+01 0.30357763630E+01 0.30403536411E+01 0.30528583435E+01 0.30681533748E+01
 0.30727305371E+01 0.30773387248E+01 0.30779090529E+01 0.30709544251E+01 0.30670109037E+01
 0.30561631914E+01 0.30321829446E+01 0.30356628992E+01 0.30226921216E+01 0.30002225498E+01
 0.29767656802E+01 0.29667786602E+01 0.29600956763E+01 0.29605951593E+01 0.29600956764E+01
 0.29667786605E+01 0.29767656806E+01 0.30002225504E+01 0.30226921223E+01 0.30356628998E+01
 0.30321829454E+01 0.30561631924E+01 0.30670109045E+01 0.30709544261E+01 0.30779090539E+01
 0.30773387257E+01 0.30727305380E+01 0.30681533757E+01 0.30528583444E+01 0.30403536419E+01
 0.30357763637E+01 0.29993291340E+01 0.29843935843E+01 0.29808992790E+01 0.29785004585E+01
 0.29677781732E+01 0.29612583984E+01 0.29598928227E+01 0.29605951593E+01 0.29647897631E+01
 0.29746638586E+01 0.29958169134E+01 0.30230327622E+01 0.30379549387E+01 0.30348686953E+01
 0.30578147080E+01 0.30732381469E+01 0.30754119424E+01 0.30873813801E+01 0.30840906507E+01
 0.30873813801E+01 0.30754119423E+01 0.30732381469E+01 0.30578147079E+01 0.30348686952E+01
 0.30379549387E+01 0.30230327621E+01 0.29958169133E+01 0.29746638586E+01 0.29647897631E+01
 0.29605951593E+01 0.29598928227E+01 0.29605951594E+01 0.29647897634E+01 0.29746638590E+01
 0.29958169140E+01 0.30230327629E+01 0.30379549394E+01 0.30348686960E+01 0.30578147090E+01
 0.30732381477E+01 0.30754119433E+01 0.30873813811E+01 0.30840906517E+01 0.30873813811E+01
 0.30754119433E+01 0.30732381478E+01 0.30578147088E+01 0.30348686960E+01 0.30379549394E+01
 0.30230327628E+01 0.29958169139E+01 0.29746638590E+01 0.29647897634E+01 0.29605951594E+01
 0.29564848645E+01 0.29612583984E+01 0.29677781730E+01 0.29785004582E+01 0.29808992786E+01
 0.29843935839E+01 0.29993291335E+01 0.30357763631E+01 0.30403536412E+01 0.30528583436E+01
 0.30681533749E+01 0.30727305372E+01 0.30773387249E+01 0.30779090530E+01 0.30709544252E+01
 0.30670109038E+01 0.30561631915E+01 0.30321829448E+01 0.30356628993E+01 0.30226921217E+01
 0.30002225499E+01 0.29767656803E+01 0.29667786603E+01 0.29600956764E+01 0.29605951594E+01
 0.29600956766E+01 0.29667786606E+01 0.29767656808E+01 0.30002225506E+01 0.30226921224E+01
 0.30356629000E+01 0.30321829455E+01 0.30561631925E+01 0.30670109046E+01 0.30709544262E+01
 0.30779090540E+01 0.30773387258E+01 0.30727305381E+01 0.30681533758E+01 0.30528583445E+01
 0.30403536420E+01 0.30357763638E+01 0.29993291341E+01 0.29843935844E+01 0.29808992790E+01
 0.29785004585E+01 0.29677781733E+01 0.29612583985E+01 0.28610191857E+01 0.28627071199E+01
 0.28684303151E+01 0.28818266315E+01 0.29069806918E+01 0.29396809945E+01 0.29597230908E+01
 0.29630044346E+01 0.29926645658E+01 0.30152230196E+01 0.30242276837E+01 0.30433852966E+01
 0.30469753837E+01 0.30564069739E+01 0.30521705017E+01 0.30521401599E+01 0.30482628789E+01
 0.30255389529E+01 0.30280871314E+01 0.30252275793E+01 0.30041839729E+01 0.29842994429E+01
 0.29716085756E+01 0.29667786605E+01 0.29647897634E+01 0.29667786606E+01 0.29716085759E+01
 0.29842994434E+01 0.30041839735E+01 0.30252275800E+01 0.30280871320E+01 0.30255389538E+01
 0.30482628799E+01 0.30521401607E+01 0.30521705027E+01 0.30564069749E+01 0.30469753847E+01
 0.30433852975E+01 0.30242276846E+01 0.30152230204E+01 0.29926645666E+01 0.29630044353E+01
 0.29597230914E+01 0.29396809950E+01 0.29069806923E+01 0.28818266318E+01 0.28684303153E+01
 0.28627071200E+01 0.27582002547E+01 0.27643228480E+01 0.27744270799E+01 0.27909699102E+01
 0.28009297614E+01 0.28141505458E+01 0.28412941821E+01 0.28909770830E+01 0.29087650621E+01
 0.29352796045E+01 0.29653838739E+01 0.29833002819E+01 0.30030826339E+01 0.30145773253E+01
 0.30245393427E+01 0.30245527511E+01 0.30339749123E+01 0.30175669849E+01 0.30144730366E+01
 0.30219811487E+01 0.30148841230E+01 0.29980413436E+01 0.29842994430E+01 0.29767656806E+01
 0.29746638590E+01 0.29767656808E+01 0.29842994434E+01 0.29980413441E+01 0.30148841235E+01
 0.30219811493E+01 0.30144730372E+01 0.30175669858E+01 0.30339749132E+01 0.30245527519E+01
 0.30245393437E+01 0.30145773262E+01 0.30030826348E+01 0.29833002828E+01 0.29653838748E+01
 0.29352796053E+01 0.29087650629E+01 0.28909770837E+01 0.28412941828E+01 0.28141505463E+01
 0.28009297618E+01 0.27909699105E+01 0.27744270801E+01 0.27643228481E+01 0.25547617744E+01
 0.25574049958E+01 0.25702162574E+01 0.25926668736E+01 0.26328426069E+01 0.26807116008E+01
 0.27191553111E+01 0.27400418983E+01 0.27931614912E+01 0.28354054524E+01 0.28681988340E+01
 0.29066827645E+01 0.29343498462E+01 0.29596200662E+01 0.29804671800E+01 0.29905183292E+01
 0.30062740610E+01 0.30096654725E+01 0.29997071375E+01 0.30126756649E+01 0.30166537491E+01
 0.30148841231E+01 0.30041839732E+01 0.30002225504E+01 0.29958169140E+01 0.30002225506E+01
 0.30041839735E+01 0.30148841235E+01 0.30166537496E+01 0.30126756654E+01 0.29997071382E+01
 0.30096654735E+01 0.30062740617E+01 0.29905183301E+01 0.29804671810E+01 0.29596200671E+01
 0.29343498472E+01 0.29066827654E+01 0.28681988349E+01 0.28354054532E+01 0.27931614919E+01
 0.27400418990E+01 0.27191553117E+01 0.26807116013E+01 0.26328426073E+01 0.25926668739E+01
 0.25702162576E+01 0.25574049959E+01 0.23414911960E+01 0.23486399338E+01 0.23685286097E+01
 0.23958203211E+01 0.24239797193E+01 0.24563867402E+01 0.25117638840E+01 0.25883163976E+01
 0.26356557214E+01 0.26904746501E+01 0.27527354443E+01 0.27978244665E+01 0.28486625408E+01
 0.28849417115E+01 0.29221832482E+01 0.29476834768E+01 0.29671584387E+01 0.29932200312E+01
 0.29927199644E+01 0.29955717945E+01 0.30126756650E+01 0.30219811490E+01 0.30252275797E+01
 0.30226921223E+01 0.30230327629E+01 0.30226921224E+01 0.30252275800E+01 0.30219811493E+01
 0.30126756654E+01 0.29955717950E+01 0.29927199653E+01 0.29932200320E+01 0.29671584394E+01
 0.29476834777E+01 0.29221832490E+01 0.28849417124E+01 0.28486625417E+01 0.27978244674E+01
 0.27527354452E+01 0.26904746509E+01 0.26356557221E+01 0.25883163983E+01 0.25117638845E+01
 0.24563867408E+01 0.24239797197E+01 0.23958203214E+01 0.23685286099E+01 0.23486399339E+01
 0.20050066551E+01 0.20119564578E+01 0.20357329345E+01 0.20780752111E+01 0.21441703551E+01
 0.22234034296E+01 0.22926583621E+01 0.23488196008E+01 0.24411313985E+01 0.25228602239E+01
 0.25930724323E+01 0.26716146668E+01 0.27334156807E+01 0.27970009682E+01 0.28446311209E+01
 0.28937976390E+01 0.29246482510E+01 0.29561678049E+01 0.29878163016E+01 0.29927199646E+01
 0.29997071377E+01 0.30144730369E+01 0.30280871318E+01 0.30356628998E+01 0.30379549394E+01
 0.30356629000E+01 0.30280871320E+01 0.30144730372E+01 0.29997071382E+01 0.29927199653E+01
 0.29878163023E+01 0.29561678055E+01 0.29246482519E+01 0.28937976398E+01 0.28446311217E+01
 0.27970009691E+01 0.27334156815E+01 0.26716146677E+01 0.25930724331E+01 0.25228602247E+01
 0.24411313992E+01 0.23488196014E+01 0.22926583626E+01 0.22234034301E+01 0.21441703555E+01
 0.20780752114E+01 0.20357329347E+01 0.20119564579E+01 0.16575761945E+01 0.16706683431E+01
 0.17036799283E+01 0.17536025976E+01 0.18086990662E+01 0.18779720969E+01 0.19780726959E+01
 0.21048601010E+01 0.21970131142E+01 0.23029347774E+01 0.24132635723E+01 0.25065648153E+01
 0.26020206558E+01 0.26818612585E+01 0.27582851970E+01 0.28187560927E+01 0.28781254771E+01
 0.29165643388E+01 0.29561678050E+01 0.29932200314E+01 0.30096654729E+01 0.30175669854E+01
 0.30255389535E+01 0.30321829454E+01 0.30348686960E+01 0.30321829455E+01 0.30255389538E+01
 0.30175669858E+01 0.30096654735E+01 0.29932200320E+01 0.29561678055E+01 0.29165643396E+01
 0.28781254779E+01 0.28187560935E+01 0.27582851978E+01 0.26818612594E+01 0.26020206566E+01
 0.25065648161E+01 0.24132635732E+01 0.23029347781E+01 0.21970131149E+01 0.21048601016E+01
 0.19780726965E+01 0.18779720974E+01 0.18086990666E+01 0.17536025979E+01 0.17036799285E+01
 0.16706683432E+01 0.11438904540E+01 0.11567496982E+01 0.12012341693E+01 0.12770615107E+01
 0.13905875076E+01 0.15218589729E+01 0.16431076968E+01 0.17536399680E+01 0.19117986318E+01
 0.20530626736E+01 0.21841447867E+01 0.23201789811E+01 0.24378926260E+01 0.25514711043E+01
 0.26484653369E+01 0.27376700199E+01 0.28098464212E+01 0.28781254772E+01 0.29246482512E+01
 0.29671584389E+01 0.30062740613E+01 0.30339749128E+01 0.30482628796E+01 0.30561631924E+01
 0.30578147090E+01 0.30561631925E+01 0.30482628799E+01 0.30339749132E+01 0.30062740617E+01
 0.29671584394E+01 0.29246482519E+01 0.28781254779E+01 0.28098464220E+01 0.27376700207E+01
 0.26484653377E+01 0.25514711051E+01 0.24378926268E+01 0.23201789819E+01 0.21841447875E+01
 0.20530626743E+01 0.19117986324E+01 0.17536399686E+01 0.16431076974E+01 0.15218589734E+01
 0.13905875079E+01 0.12770615110E+01 0.12012341695E+01 0.11567496982E+01 0.62648831939E+00
 0.64832266490E+00 0.70532571623E+00 0.79007931673E+00 0.88819140876E+00 0.10144682860E+01
 0.11910287446E+01 0.13990093302E+01 0.15614530880E+01 0.17445738626E+01 0.19288181929E+01
 0.20916759699E+01 0.22529995229E+01 0.23937067269E+01 0.25249288650E+01 0.26368955380E+01
 0.27376700200E+01 0.28187560928E+01 0.28937976392E+01 0.29476834772E+01 0.29905183297E+01
 0.30245527516E+01 0.30521401605E+01 0.30670109045E+01 0.30732381477E+01 0.30670109046E+01
 0.30521401607E+01 0.30245527519E+01 0.29905183301E+01 0.29476834777E+01 0.28937976398E+01
 0.28187560935E+01 0.27376700207E+01 0.26368955388E+01 0.25249288658E+01 0.23937067277E+01
 0.22529995236E+01 0.20916759707E+01 0.19288181937E+01 0.17445738633E+01 0.15614530887E+01
 0.13990093308E+01 0.11910287451E+01 0.10144682864E+01 0.88819140912E+00 0.79007931700E+00