 running on    1 total cores
 distrk:  each k-point on    1 cores,    1 groups
 distr:  one band on    1 cores,    1 groups
 running on    1 total cores
 running on    1 total cores
 running on    1 total cores
 distrk:  each k-point on    1 cores,    1 groups
 distr:  one band on    1 cores,    1 groups
 distrk:  each k-point on    1 cores,    1 groups
 distr:  one band on    1 cores,    1 groups
 distrk:  each k-point on    1 cores,    1 groups
 distr:  one band on    1 cores,    1 groups
 vasp.6.2.1 16May21 (build Dec 20 2021 17:02:34) complex                         
 vasp.6.2.1 16May21 (build Dec 20 2021 17:02:34) complex                         
 vasp.6.2.1 16May21 (build Dec 20 2021 17:02:34) complex                         
 vasp.6.2.1 16May21 (build Dec 20 2021 17:02:34) complex                         
 POSCAR found type information on POSCAR Na
 POSCAR found type information on POSCAR Na
 POSCAR found :  1 types and       2 ions
 POSCAR found :  1 types and       2 ions
 POSCAR found type information on POSCAR Na
 POSCAR found :  1 types and       2 ions
 POSCAR found type information on POSCAR Na
 POSCAR found :  1 types and       2 ions
 scaLAPACK will be used
 scaLAPACK will be used
 scaLAPACK will be used
 scaLAPACK will be used
 LDA part: xc-table for Pade appr. of Perdew
 LDA part: xc-table for Pade appr. of Perdew
 LDA part: xc-table for Pade appr. of Perdew
 LDA part: xc-table for Pade appr. of Perdew
 POSCAR, INCAR and KPOINTS ok, starting setup
 FFT: planning ...
 WAVECAR not read
 entering main loop
 POSCAR, INCAR and KPOINTS ok, starting setup
 POSCAR, INCAR and KPOINTS ok, starting setup
 FFT: planning ...
 FFT: planning ...
 WAVECAR not read
 WAVECAR not read
       N       E                     dE             d eps       ncg     rms          rms(c)
 entering main loop
 entering main loop
DAV:   1    -0.252089713835E+01   -0.25209E+01   -0.37725E+02    40   0.683E+01
DAV:   2    -0.273344173490E+01   -0.21254E+00   -0.21255E+00    60   0.689E+00
DAV:   3    -0.273431261839E+01   -0.87088E-03   -0.87088E-03    60   0.469E-01
DAV:   4    -0.273431402926E+01   -0.14109E-05   -0.14109E-05    45   0.160E-02
DAV:   5    -0.273431403446E+01   -0.52001E-08   -0.51826E-08    35   0.792E-04    0.297E-01
DAV:   6    -0.273464548053E+01   -0.33145E-03   -0.42241E-05    25   0.319E-02    0.198E-01
 POSCAR, INCAR and KPOINTS ok, starting setup
 FFT: planning ...
DAV:   7    -0.273437176358E+01    0.27372E-03   -0.16201E-04    40   0.660E-02    0.133E-02
DAV:   8    -0.273436918690E+01    0.25767E-05   -0.41446E-06    20   0.122E-02
 WAVECAR not read
       N       E                     dE             d eps       ncg     rms          rms(c)
 entering main loop
DAV:   1    -0.252089713835E+01   -0.25209E+01   -0.37725E+02    40   0.683E+01
DAV:   2    -0.273344173490E+01   -0.21254E+00   -0.21255E+00    60   0.689E+00
DAV:   3    -0.273431261839E+01   -0.87088E-03   -0.87088E-03    60   0.469E-01
       N       E                     dE             d eps       ncg     rms          rms(c)
   1 F= -.27343692E+01 E0= -.27355147E+01  d E =-.273437E+01
 BRION: g(F)=  0.776E-55 g(S)=  0.000E+00
 reached required accuracy - stopping structural energy minimisation
DAV:   4    -0.273431402926E+01   -0.14109E-05   -0.14109E-05    45   0.160E-02
DAV:   1    -0.252089713835E+01   -0.25209E+01   -0.37725E+02    40   0.683E+01
DAV:   5    -0.273431403446E+01   -0.52001E-08   -0.51826E-08    35   0.792E-04    0.297E-01
DAV:   2    -0.273344173490E+01   -0.21254E+00   -0.21255E+00    60   0.689E+00
DAV:   6    -0.273464548053E+01   -0.33145E-03   -0.42241E-05    25   0.319E-02    0.198E-01
DAV:   3    -0.273431261839E+01   -0.87088E-03   -0.87088E-03    60   0.469E-01
DAV:   7    -0.273437176358E+01    0.27372E-03   -0.16201E-04    40   0.660E-02DAV:   4    -0.273431402926E+01   -0.14109E-05   -0.14109E-05    45   0.160E-02
    0.133E-02
DAV:   5    -0.273431403446E+01   -0.52001E-08   -0.51826E-08    35   0.792E-04    0.297E-01
DAV:   8    -0.273436918690E+01    0.25767E-05   -0.41446E-06    20   0.122E-02
DAV:   6    -0.273464548053E+01   -0.33145E-03   -0.42241E-05    25   0.319E-02    0.198E-01
   1 F= -.27343692E+01 E0= -.27355147E+01  d E =-.273437E+01
 BRION: g(F)=  0.776E-55 g(S)=  0.000E+00
 reached required accuracy - stopping structural energy minimisation
DAV:   7    -0.273437176358E+01    0.27372E-03   -0.16201E-04    40   0.660E-02    0.133E-02
DAV:   8    -0.273436918690E+01    0.25767E-05   -0.41446E-06    20   0.122E-02
       N       E                     dE             d eps       ncg     rms          rms(c)
 writing wavefunctions
DAV:   1    -0.252089713835E+01   -0.25209E+01   -0.37725E+02    40   0.683E+01
   1 F= -.27343692E+01 E0= -.27355147E+01  d E =-.273437E+01
 BRION: g(F)=  0.776E-55 g(S)=  0.000E+00
 reached required accuracy - stopping structural energy minimisation
DAV:   2    -0.273344173490E+01   -0.21254E+00   -0.21255E+00    60   0.689E+00
DAV:   3    -0.273431261839E+01   -0.87088E-03   -0.87088E-03    60   0.469E-01
DAV:   4    -0.273431402926E+01   -0.14109E-05   -0.14109E-05    45   0.160E-02
DAV:   5    -0.273431403446E+01   -0.52001E-08   -0.51826E-08    35   0.792E-04    0.297E-01
DAV:   6    -0.273464548053E+01   -0.33145E-03   -0.42241E-05    25   0.319E-02    0.198E-01
DAV:   7    -0.273437176358E+01    0.27372E-03   -0.16201E-04    40   0.660E-02    0.133E-02
DAV:   8    -0.273436918690E+01    0.25767E-05   -0.41446E-06    20   0.122E-02
   1 F= -.27343692E+01 E0= -.27355147E+01  d E =-.273437E+01
 BRION: g(F)=  0.776E-55 g(S)=  0.000E+00
 reached required accuracy - stopping structural energy minimisation
 writing wavefunctions
 writing wavefunctions
 writing wavefunctions
Note: The following floating-point exceptions are signalling: IEEE_UNDERFLOW_FLAG IEEE_DENORMAL
Note: The following floating-point exceptions are signalling: IEEE_UNDERFLOW_FLAG IEEE_DENORMAL
Note: The following floating-point exceptions are signalling: IEEE_UNDERFLOW_FLAG IEEE_DENORMAL
Note: The following floating-point exceptions are signalling: IEEE_UNDERFLOW_FLAG IEEE_DENORMAL
 running on    1 total cores
 running on    1 total cores
 distrk:  each k-point on    1 cores,    1 groups
 distr:  one band on    1 cores,    1 groups
 distrk:  each k-point on    1 cores,    1 groups
 distr:  one band on    1 cores,    1 groups
 running on    1 total cores
 running on    1 total cores
 distrk:  each k-point on    1 cores,    1 groups
 distrk:  each k-point on    1 cores,    1 groups
 distr:  one band on    1 cores,    1 groups
 distr:  one band on    1 cores,    1 groups
 vasp.6.2.1 16May21 (build Dec 20 2021 17:02:34) complex                         
 vasp.6.2.1 16May21 (build Dec 20 2021 17:02:34) complex                         
 POSCAR found type information on POSCAR Na
 POSCAR found :  1 types and       2 ions
 scaLAPACK will be used
 vasp.6.2.1 16May21 (build Dec 20 2021 17:02:34) complex                         
 POSCAR found type information on POSCAR Na
 POSCAR found :  1 types and       2 ions
 scaLAPACK will be used
 LDA part: xc-table for Pade appr. of Perdew
 vasp.6.2.1 16May21 (build Dec 20 2021 17:02:34) complex                         
 LDA part: xc-table for Pade appr. of Perdew
 POSCAR found type information on POSCAR Na
 POSCAR found :  1 types and       2 ions
 scaLAPACK will be used
 found WAVECAR, reading the header
  number of k-points has changed, file:     4 present:    10
  trying to continue reading WAVECAR, but it might fail
 POSCAR found type information on POSCAR Na
 POSCAR found :  1 types and       2 ions
 scaLAPACK will be used
 LDA part: xc-table for Pade appr. of Perdew
 LDA part: xc-table for Pade appr. of Perdew
 found WAVECAR, reading the header
  number of k-points has changed, file:     4 present:    10
  trying to continue reading WAVECAR, but it might fail
 found WAVECAR, reading the header
  number of k-points has changed, file:     4 present:    10
  trying to continue reading WAVECAR, but it might fail
 found WAVECAR, reading the header
  number of k-points has changed, file:     4 present:    10
  trying to continue reading WAVECAR, but it might fail
 POSCAR, INCAR and KPOINTS ok, starting setup
 FFT: planning ...
 reading WAVECAR
 the WAVECAR file was read successfully
 initial charge from wavefunction
 entering main loop
       N       E                     dE             d eps       ncg     rms          rms(c)
 POSCAR, INCAR and KPOINTS ok, starting setup
 FFT: planning ...
 reading WAVECAR
 the WAVECAR file was read successfully
 initial charge from wavefunction
 entering main loop
       N       E                     dE             d eps       ncg     rms          rms(c)
DAV:   1    -0.256322851045E+01   -0.25632E+01   -0.33256E-01   120   0.263E+00    0.211E-02
DAV:   2    -0.256419306582E+01   -0.96456E-03   -0.94888E-03   115   0.300E-01    0.144E-02
DAV:   3    -0.256420717797E+01   -0.14112E-04   -0.40705E-05   100   0.173E-02
   1 F= -.25642072E+01 E0= -.25655465E+01  d E =-.256421E+01
 BRION: g(F)=  0.674E-54 g(S)=  0.000E+00
 reached required accuracy - stopping structural energy minimisation
DAV:   1    -0.256322851045E+01   -0.25632E+01   -0.33256E-01   120   0.263E+00    0.211E-02
DAV:   2    -0.256419306582E+01   -0.96456E-03   -0.94888E-03   115   0.300E-01    0.144E-02
DAV:   3    -0.256420717797E+01   -0.14112E-04   -0.40705E-05   100   0.173E-02
   1 F= -.25642072E+01 E0= -.25655465E+01  d E =-.256421E+01
 BRION: g(F)=  0.674E-54 g(S)=  0.000E+00
 reached required accuracy - stopping structural energy minimisation
 POSCAR, INCAR and KPOINTS ok, starting setup
 FFT: planning ...
 reading WAVECAR
 the WAVECAR file was read successfully
 initial charge from wavefunction
 entering main loop
       N       E                     dE             d eps       ncg     rms          rms(c)
 POSCAR, INCAR and KPOINTS ok, starting setup
 FFT: planning ...
 reading WAVECAR
 the WAVECAR file was read successfully
 initial charge from wavefunction
 entering main loop
       N       E                     dE             d eps       ncg     rms          rms(c)
DAV:   1    -0.256322851045E+01   -0.25632E+01   -0.33256E-01   120   0.263E+00    0.211E-02
DAV:   2    -0.256419306582E+01   -0.96456E-03   -0.94888E-03   115   0.300E-01    0.144E-02
DAV:   3    -0.256420717797E+01   -0.14112E-04   -0.40705E-05   100   0.173E-02
   1 F= -.25642072E+01 E0= -.25655465E+01  d E =-.256421E+01
 BRION: g(F)=  0.674E-54 g(S)=  0.000E+00
 reached required accuracy - stopping structural energy minimisation
DAV:   1    -0.256322851045E+01   -0.25632E+01   -0.33256E-01   120   0.263E+00    0.211E-02
DAV:   2    -0.256419306582E+01   -0.96456E-03   -0.94888E-03   115   0.300E-01    0.144E-02
DAV:   3    -0.256420717797E+01   -0.14112E-04   -0.40705E-05   100   0.173E-02
   1 F= -.25642072E+01 E0= -.25655465E+01  d E =-.256421E+01
 BRION: g(F)=  0.674E-54 g(S)=  0.000E+00
 reached required accuracy - stopping structural energy minimisation
 writing wavefunctions
 writing wavefunctions
 writing wavefunctions
 writing wavefunctions
Note: The following floating-point exceptions are signalling: IEEE_UNDERFLOW_FLAG IEEE_DENORMAL
Note: The following floating-point exceptions are signalling: IEEE_UNDERFLOW_FLAG IEEE_DENORMAL
Note: The following floating-point exceptions are signalling: IEEE_UNDERFLOW_FLAG IEEE_DENORMAL
Note: The following floating-point exceptions are signalling: IEEE_UNDERFLOW_FLAG IEEE_DENORMAL
 running on    1 total cores
 running on    1 total cores
 distrk:  each k-point on    1 cores,    1 groups
 distr:  one band on    1 cores,    1 groups
 distrk:  each k-point on    1 cores,    1 groups
 distr:  one band on    1 cores,    1 groups
 running on    1 total cores
 running on    1 total cores
 distrk:  each k-point on    1 cores,    1 groups
 distr:  one band on    1 cores,    1 groups
 distrk:  each k-point on    1 cores,    1 groups
 distr:  one band on    1 cores,    1 groups
 vasp.6.2.1 16May21 (build Dec 20 2021 17:02:34) complex                         
 vasp.6.2.1 16May21 (build Dec 20 2021 17:02:34) complex                         
 POSCAR found type information on POSCAR Na
 POSCAR found :  1 types and       2 ions
 scaLAPACK will be used
 vasp.6.2.1 16May21 (build Dec 20 2021 17:02:34) complex                         
 POSCAR found type information on POSCAR Na
 POSCAR found :  1 types and       2 ions
 scaLAPACK will be used
 LDA part: xc-table for Pade appr. of Perdew
 LDA part: xc-table for Pade appr. of Perdew
 vasp.6.2.1 16May21 (build Dec 20 2021 17:02:34) complex                         
 POSCAR found type information on POSCAR Na
 POSCAR found :  1 types and       2 ions
 scaLAPACK will be used
 POSCAR found type information on POSCAR Na
 POSCAR found :  1 types and       2 ions
 found WAVECAR, reading the header
  number of k-points has changed, file:    10 present:    20
  trying to continue reading WAVECAR, but it might fail
 scaLAPACK will be used
 LDA part: xc-table for Pade appr. of Perdew
 LDA part: xc-table for Pade appr. of Perdew
 found WAVECAR, reading the header
  number of k-points has changed, file:    10 present:    20
  trying to continue reading WAVECAR, but it might fail
 found WAVECAR, reading the header
  number of k-points has changed, file:    10 present:    20
  trying to continue reading WAVECAR, but it might fail
 found WAVECAR, reading the header
  number of k-points has changed, file:    10 present:    20
  trying to continue reading WAVECAR, but it might fail
 POSCAR, INCAR and KPOINTS ok, starting setup
 FFT: planning ...
 reading WAVECAR
 the WAVECAR file was read successfully
 initial charge from wavefunction
 entering main loop
       N       E                     dE             d eps       ncg     rms          rms(c)
 POSCAR, INCAR and KPOINTS ok, starting setup
 FFT: planning ...
 reading WAVECAR
 the WAVECAR file was read successfully
 initial charge from wavefunction
 entering main loop
       N       E                     dE             d eps       ncg     rms          rms(c)
DAV:   1    -0.177297686379E+01   -0.17730E+01   -0.19363E-01   260   0.126E+00BRMIX: very serious problems
 the old and the new charge density differ
 old charge density:     0.71320 new    2.00000
    0.147E+00
DAV:   2    -0.259314222020E+01   -0.82017E+00   -0.20069E-01   270   0.215E+00    0.194E-01
DAV:   3    -0.259384479294E+01   -0.70257E-03   -0.35678E-04   220   0.101E-01    0.208E-01
DAV:   4    -0.258902812099E+01    0.48167E-02   -0.23708E-04   230   0.823E-02    0.178E-02
DAV:   5    -0.258902433259E+01    0.37884E-05   -0.11238E-06   115   0.533E-03
   1 F= -.25890243E+01 E0= -.25894444E+01  d E =-.258902E+01
 BRION: g(F)=  0.963E-55 g(S)=  0.000E+00
 reached required accuracy - stopping structural energy minimisation
DAV:   1    -0.177297686379E+01   -0.17730E+01   -0.19363E-01   260   0.126E+00BRMIX: very serious problems
 the old and the new charge density differ
 old charge density:     0.71320 new    2.00000
    0.147E+00
DAV:   2    -0.259314222020E+01   -0.82017E+00   -0.20069E-01   270   0.215E+00    0.194E-01
DAV:   3    -0.259384479294E+01   -0.70257E-03   -0.35678E-04   220   0.101E-01    0.208E-01
 POSCAR, INCAR and KPOINTS ok, starting setup
 FFT: planning ...
 reading WAVECAR
 the WAVECAR file was read successfully
DAV:   4    -0.258902812099E+01    0.48167E-02   -0.23708E-04   230   0.823E-02 initial charge from wavefunction
    0.178E-02
 entering main loop
DAV:   5    -0.258902433259E+01    0.37884E-05   -0.11238E-06   115   0.533E-03
 POSCAR, INCAR and KPOINTS ok, starting setup
 FFT: planning ...
 reading WAVECAR
 the WAVECAR file was read successfully
 initial charge from wavefunction
 entering main loop
       N       E                     dE             d eps       ncg     rms          rms(c)
   1 F= -.25890243E+01 E0= -.25894444E+01  d E =-.258902E+01
 BRION: g(F)=  0.963E-55 g(S)=  0.000E+00
 reached required accuracy - stopping structural energy minimisation
       N       E                     dE             d eps       ncg     rms          rms(c)
 writing wavefunctions
DAV:   1    -0.177297686379E+01   -0.17730E+01   -0.19363E-01   260   0.126E+00BRMIX: very serious problems
 the old and the new charge density differ
 old charge density:     0.71320 new    2.00000
    0.147E+00
DAV:   2    -0.259314222020E+01   -0.82017E+00   -0.20069E-01   270   0.215E+00    0.194E-01
DAV:   3    -0.259384479294E+01   -0.70257E-03   -0.35678E-04   220   0.101E-01    0.208E-01
DAV:   4    -0.258902812099E+01    0.48167E-02   -0.23708E-04   230   0.823E-02    0.178E-02
DAV:   5    -0.258902433259E+01    0.37884E-05   -0.11238E-06   115   0.533E-03
   1 F= -.25890243E+01 E0= -.25894444E+01  d E =-.258902E+01
 BRION: g(F)=  0.963E-55 g(S)=  0.000E+00
 reached required accuracy - stopping structural energy minimisation
DAV:   1    -0.177297686379E+01   -0.17730E+01   -0.19363E-01   260   0.126E+00BRMIX: very serious problems
 the old and the new charge density differ
 old charge density:     0.71320 new    2.00000
    0.147E+00
DAV:   2    -0.259314222020E+01   -0.82017E+00   -0.20069E-01   270   0.215E+00    0.194E-01
DAV:   3    -0.259384479294E+01   -0.70257E-03   -0.35678E-04   220   0.101E-01    0.208E-01
DAV:   4    -0.258902812099E+01    0.48167E-02   -0.23708E-04   230   0.823E-02    0.178E-02
DAV:   5    -0.258902433259E+01    0.37884E-05   -0.11238E-06   115   0.533E-03
 writing wavefunctions
   1 F= -.25890243E+01 E0= -.25894444E+01  d E =-.258902E+01
 BRION: g(F)=  0.963E-55 g(S)=  0.000E+00
 reached required accuracy - stopping structural energy minimisation
 writing wavefunctions
 writing wavefunctions
Note: The following floating-point exceptions are signalling: IEEE_UNDERFLOW_FLAG IEEE_DENORMAL
Note: The following floating-point exceptions are signalling: IEEE_UNDERFLOW_FLAG IEEE_DENORMAL
Note: The following floating-point exceptions are signalling: IEEE_UNDERFLOW_FLAG IEEE_DENORMAL
Note: The following floating-point exceptions are signalling: IEEE_UNDERFLOW_FLAG IEEE_DENORMAL
 running on    1 total cores
 distrk:  each k-point on    1 cores,    1 groups
 distr:  one band on    1 cores,    1 groups
 running on    1 total cores
 running on    1 total cores
 distrk:  each k-point on    1 cores,    1 groups
 distrk:  each k-point on    1 cores,    1 groups
 distr:  one band on    1 cores,    1 groups
 distr:  one band on    1 cores,    1 groups
 running on    1 total cores
 distrk:  each k-point on    1 cores,    1 groups
 distr:  one band on    1 cores,    1 groups
 vasp.6.2.1 16May21 (build Dec 20 2021 17:02:34) complex                         
 vasp.6.2.1 16May21 (build Dec 20 2021 17:02:34) complex                         
 POSCAR found type information on POSCAR Na
 POSCAR found :  1 types and       2 ions
 scaLAPACK will be used
 vasp.6.2.1 16May21 (build Dec 20 2021 17:02:34) complex                         
 POSCAR found type information on POSCAR Na
 POSCAR found :  1 types and       2 ions
 scaLAPACK will be used
 LDA part: xc-table for Pade appr. of Perdew
 LDA part: xc-table for Pade appr. of Perdew
 vasp.6.2.1 16May21 (build Dec 20 2021 17:02:34) complex                         
 POSCAR found type information on POSCAR Na
 POSCAR found :  1 types and       2 ions
 scaLAPACK will be used
 found WAVECAR, reading the header
  number of k-points has changed, file:    20 present:    35
  trying to continue reading WAVECAR, but it might fail
 POSCAR found type information on POSCAR Na
 POSCAR found :  1 types and       2 ions
 scaLAPACK will be used
 LDA part: xc-table for Pade appr. of Perdew
 LDA part: xc-table for Pade appr. of Perdew
 found WAVECAR, reading the header
  number of k-points has changed, file:    20 present:    35
  trying to continue reading WAVECAR, but it might fail
 found WAVECAR, reading the header
  number of k-points has changed, file:    20 present:    35
  trying to continue reading WAVECAR, but it might fail
 found WAVECAR, reading the header
  number of k-points has changed, file:    20 present:    35
  trying to continue reading WAVECAR, but it might fail
 POSCAR, INCAR and KPOINTS ok, starting setup
 FFT: planning ...
 reading WAVECAR
 the WAVECAR file was read successfully
 initial charge from wavefunction
 entering main loop
       N       E                     dE             d eps       ncg     rms          rms(c)
DAV:   1    -0.196986737318E+01   -0.19699E+01   -0.21361E-01   450   0.126E+00BRMIX: very serious problems
 the old and the new charge density differ
 old charge density:     0.84165 new    2.00000
    0.132E+00
DAV:   2    -0.260765264912E+01   -0.63779E+00   -0.15020E-01   455   0.189E+00    0.176E-01
DAV:   3    -0.260733825979E+01    0.31439E-03   -0.29703E-04   375   0.945E-02    0.167E-01
 POSCAR, INCAR and KPOINTS ok, starting setup
 FFT: planning ...
 reading WAVECAR
DAV:   4    -0.260431603979E+01    0.30222E-02   -0.26163E-04   370   0.861E-02 the WAVECAR file was read successfully
 initial charge from wavefunction
    0.646E-03
 entering main loop
DAV:   5    -0.260430474881E+01    0.11291E-04   -0.14677E-06   190   0.811E-03
 POSCAR, INCAR and KPOINTS ok, starting setup
 FFT: planning ...
 reading WAVECAR
 the WAVECAR file was read successfully
 initial charge from wavefunction
 entering main loop
       N       E                     dE             d eps       ncg     rms          rms(c)
   1 F= -.26043047E+01 E0= -.26052764E+01  d E =-.260430E+01
 BRION: g(F)=  0.186E-56 g(S)=  0.000E+00
 reached required accuracy - stopping structural energy minimisation
 POSCAR, INCAR and KPOINTS ok, starting setup
 FFT: planning ...
 reading WAVECAR
 the WAVECAR file was read successfully
 initial charge from wavefunction
 entering main loop
       N       E                     dE             d eps       ncg     rms          rms(c)
       N       E                     dE             d eps       ncg     rms          rms(c)
DAV:   1    -0.196986737318E+01   -0.19699E+01   -0.21361E-01   450   0.126E+00BRMIX: very serious problems
 the old and the new charge density differ
 old charge density:     0.84165 new    2.00000
    0.132E+00
DAV:   2    -0.260765264912E+01   -0.63779E+00   -0.15020E-01   455   0.189E+00    0.176E-01
DAV:   3    -0.260733825979E+01    0.31439E-03   -0.29703E-04   375   0.945E-02    0.167E-01
DAV:   4    -0.260431603979E+01    0.30222E-02   -0.26163E-04   370   0.861E-02    0.646E-03
DAV:   5    -0.260430474881E+01    0.11291E-04   -0.14677E-06   190   0.811E-03
   1 F= -.26043047E+01 E0= -.26052764E+01  d E =-.260430E+01
 BRION: g(F)=  0.186E-56 g(S)=  0.000E+00
 reached required accuracy - stopping structural energy minimisation
DAV:   1    -0.196986737318E+01   -0.19699E+01   -0.21361E-01   450   0.126E+00BRMIX: very serious problems
 the old and the new charge density differ
 old charge density:     0.84165 new    2.00000
    0.132E+00
DAV:   2    -0.260765264912E+01   -0.63779E+00   -0.15020E-01   455   0.189E+00    0.176E-01
DAV:   3    -0.260733825979E+01    0.31439E-03   -0.29703E-04   375   0.945E-02    0.167E-01
DAV:   1    -0.196986737318E+01   -0.19699E+01   -0.21361E-01   450   0.126E+00BRMIX: very serious problems
 the old and the new charge density differ
 old charge density:     0.84165 new    2.00000
    0.132E+00
DAV:   4    -0.260431603979E+01    0.30222E-02   -0.26163E-04   370   0.861E-02    0.646E-03
DAV:   2    -0.260765264912E+01   -0.63779E+00   -0.15020E-01   455   0.189E+00    0.176E-01
DAV:   5    -0.260430474881E+01    0.11291E-04   -0.14677E-06   190   0.811E-03
   1 F= -.26043047E+01 E0= -.26052764E+01  d E =-.260430E+01
 BRION: g(F)=  0.186E-56 g(S)=  0.000E+00
 reached required accuracy - stopping structural energy minimisation
DAV:   3    -0.260733825979E+01    0.31439E-03   -0.29703E-04   375   0.945E-02    0.167E-01
 writing wavefunctions
DAV:   4    -0.260431603979E+01    0.30222E-02   -0.26163E-04   370   0.861E-02    0.646E-03
DAV:   5    -0.260430474881E+01    0.11291E-04   -0.14677E-06   190   0.811E-03
   1 F= -.26043047E+01 E0= -.26052764E+01  d E =-.260430E+01
 BRION: g(F)=  0.186E-56 g(S)=  0.000E+00
 reached required accuracy - stopping structural energy minimisation
 writing wavefunctions
 writing wavefunctions
 writing wavefunctions
Note: The following floating-point exceptions are signalling: IEEE_UNDERFLOW_FLAG IEEE_DENORMAL
Note: The following floating-point exceptions are signalling: IEEE_UNDERFLOW_FLAG IEEE_DENORMAL
Note: The following floating-point exceptions are signalling: IEEE_UNDERFLOW_FLAG IEEE_DENORMAL
Note: The following floating-point exceptions are signalling: IEEE_UNDERFLOW_FLAG IEEE_DENORMAL
 running on    1 total cores
 running on    1 total cores
 running on    1 total cores
 distrk:  each k-point on    1 cores,    1 groups
 distrk:  each k-point on    1 cores,    1 groups
 distrk:  each k-point on    1 cores,    1 groups
 distr:  one band on    1 cores,    1 groups
 distr:  one band on    1 cores,    1 groups
 distr:  one band on    1 cores,    1 groups
 running on    1 total cores
 distrk:  each k-point on    1 cores,    1 groups
 distr:  one band on    1 cores,    1 groups
 vasp.6.2.1 16May21 (build Dec 20 2021 17:02:34) complex                         
 vasp.6.2.1 16May21 (build Dec 20 2021 17:02:34) complex                         
 POSCAR found type information on POSCAR Na
 POSCAR found :  1 types and       2 ions
 scaLAPACK will be used
 vasp.6.2.1 16May21 (build Dec 20 2021 17:02:34) complex                         
 POSCAR found type information on POSCAR Na
 POSCAR found :  1 types and       2 ions
 scaLAPACK will be used
 LDA part: xc-table for Pade appr. of Perdew
 vasp.6.2.1 16May21 (build Dec 20 2021 17:02:34) complex                         
 POSCAR found type information on POSCAR Na
 POSCAR found :  1 types and       2 ions
 scaLAPACK will be used
 LDA part: xc-table for Pade appr. of Perdew
 POSCAR found type information on POSCAR Na
 POSCAR found :  1 types and       2 ions
 scaLAPACK will be used
 LDA part: xc-table for Pade appr. of Perdew
 LDA part: xc-table for Pade appr. of Perdew
 found WAVECAR, reading the header
  number of k-points has changed, file:    35 present:    56
  trying to continue reading WAVECAR, but it might fail
 found WAVECAR, reading the header
  number of k-points has changed, file:    35 present:    56
  trying to continue reading WAVECAR, but it might fail
 found WAVECAR, reading the header
  number of k-points has changed, file:    35 present:    56
  trying to continue reading WAVECAR, but it might fail
 found WAVECAR, reading the header
  number of k-points has changed, file:    35 present:    56
  trying to continue reading WAVECAR, but it might fail
 POSCAR, INCAR and KPOINTS ok, starting setup
 FFT: planning ...
 reading WAVECAR
 the WAVECAR file was read successfully
 initial charge from wavefunction
 entering main loop
       N       E                     dE             d eps       ncg     rms          rms(c)
 POSCAR, INCAR and KPOINTS ok, starting setup
 FFT: planning ...
 reading WAVECAR
 the WAVECAR file was read successfully
 initial charge from wavefunction
 entering main loop
       N       E                     dE             d eps       ncg     rms          rms(c)
DAV:   1    -0.214876430569E+01   -0.21488E+01   -0.26231E-01   700   0.145E+00 POSCAR, INCAR and KPOINTS ok, starting setup
 FFT: planning ...
BRMIX: very serious problems
 the old and the new charge density differ
 old charge density:     0.99587 new    2.00000
    0.115E+00
 reading WAVECAR
 the WAVECAR file was read successfully
 initial charge from wavefunction
 entering main loop
DAV:   2    -0.260499164325E+01   -0.45623E+00   -0.10455E-01   690   0.156E+00    0.150E-01
DAV:   3    -0.260352812481E+01    0.14635E-02   -0.23319E-04   630   0.880E-02    0.999E-02
 POSCAR, INCAR and KPOINTS ok, starting setup
DAV:   4    -0.260248510915E+01    0.10430E-02   -0.78855E-05   595   0.459E-02    0.650E-03
DAV:   1    -0.214876430569E+01   -0.21488E+01   -0.26231E-01   700   0.145E+00BRMIX: very serious problems
 the old and the new charge density differ
 old charge density:     0.99587 new    2.00000
    0.115E+00
DAV:   5    -0.260247214460E+01    0.12965E-04   -0.12628E-06   285   0.761E-03
 FFT: planning ...
 reading WAVECAR
 the WAVECAR file was read successfully
 initial charge from wavefunction
 entering main loop
DAV:   2    -0.260499164325E+01   -0.45623E+00   -0.10455E-01   690   0.156E+00    0.150E-01
       N       E                     dE             d eps       ncg     rms          rms(c)
DAV:   3    -0.260352812481E+01    0.14635E-02   -0.23319E-04   630   0.880E-02    0.999E-02
DAV:   4    -0.260248510915E+01    0.10430E-02   -0.78855E-05   595   0.459E-02    0.650E-03
   1 F= -.26024721E+01 E0= -.26033107E+01  d E =-.260247E+01
 BRION: g(F)=  0.596E-54 g(S)=  0.000E+00
 reached required accuracy - stopping structural energy minimisation
DAV:   5    -0.260247214460E+01    0.12965E-04   -0.12628E-06   285   0.761E-03
DAV:   1    -0.214876430569E+01   -0.21488E+01   -0.26231E-01   700   0.145E+00BRMIX: very serious problems
 the old and the new charge density differ
 old charge density:     0.99587 new    2.00000
    0.115E+00
       N       E                     dE             d eps       ncg     rms          rms(c)
DAV:   2    -0.260499164325E+01   -0.45623E+00   -0.10455E-01   690   0.156E+00    0.150E-01
   1 F= -.26024721E+01 E0= -.26033107E+01  d E =-.260247E+01
 BRION: g(F)=  0.596E-54 g(S)=  0.000E+00
 reached required accuracy - stopping structural energy minimisation
DAV:   3    -0.260352812481E+01    0.14635E-02   -0.23319E-04   630   0.880E-02    0.999E-02
DAV:   4    -0.260248510915E+01    0.10430E-02   -0.78855E-05   595   0.459E-02    0.650E-03
DAV:   5    -0.260247214460E+01    0.12965E-04   -0.12628E-06   285   0.761E-03
   1 F= -.26024721E+01 E0= -.26033107E+01  d E =-.260247E+01
 BRION: g(F)=  0.596E-54 g(S)=  0.000E+00
 reached required accuracy - stopping structural energy minimisation
DAV:   1    -0.214876430569E+01   -0.21488E+01   -0.26231E-01   700   0.145E+00BRMIX: very serious problems
 the old and the new charge density differ
 old charge density:     0.99587 new    2.00000
    0.115E+00
DAV:   2    -0.260499164325E+01   -0.45623E+00   -0.10455E-01   690   0.156E+00    0.150E-01
DAV:   3    -0.260352812481E+01    0.14635E-02   -0.23319E-04   630   0.880E-02    0.999E-02
DAV:   4    -0.260248510915E+01    0.10430E-02   -0.78855E-05   595   0.459E-02    0.650E-03
DAV:   5    -0.260247214460E+01    0.12965E-04   -0.12628E-06   285   0.761E-03
   1 F= -.26024721E+01 E0= -.26033107E+01  d E =-.260247E+01
 BRION: g(F)=  0.596E-54 g(S)=  0.000E+00
 reached required accuracy - stopping structural energy minimisation
 writing wavefunctions
 writing wavefunctions
 writing wavefunctions
 writing wavefunctions
Note: The following floating-point exceptions are signalling: IEEE_UNDERFLOW_FLAG IEEE_DENORMAL
Note: The following floating-point exceptions are signalling: IEEE_UNDERFLOW_FLAG IEEE_DENORMAL
Note: The following floating-point exceptions are signalling: IEEE_UNDERFLOW_FLAG IEEE_DENORMAL
Note: The following floating-point exceptions are signalling: IEEE_UNDERFLOW_FLAG IEEE_DENORMAL
 running on    1 total cores
 distrk:  each k-point on    1 cores,    1 groups
 distr:  one band on    1 cores,    1 groups
 running on    1 total cores
 running on    1 total cores
 running on    1 total cores
 distrk:  each k-point on    1 cores,    1 groups
 distr:  one band on    1 cores,    1 groups
 distrk:  each k-point on    1 cores,    1 groups
 distrk:  each k-point on    1 cores,    1 groups
 distr:  one band on    1 cores,    1 groups
 distr:  one band on    1 cores,    1 groups
 vasp.6.2.1 16May21 (build Dec 20 2021 17:02:34) complex                         
 vasp.6.2.1 16May21 (build Dec 20 2021 17:02:34) complex                         
 POSCAR found type information on POSCAR Na
 POSCAR found :  1 types and       2 ions
 scaLAPACK will be used
 vasp.6.2.1 16May21 (build Dec 20 2021 17:02:34) complex                         
 POSCAR found type information on POSCAR Na
 POSCAR found :  1 types and       2 ions
 scaLAPACK will be used
 LDA part: xc-table for Pade appr. of Perdew
 LDA part: xc-table for Pade appr. of Perdew
 vasp.6.2.1 16May21 (build Dec 20 2021 17:02:34) complex                         
 POSCAR found type information on POSCAR Na
 POSCAR found :  1 types and       2 ions
 scaLAPACK will be used
 found WAVECAR, reading the header
  number of k-points has changed, file:    56 present:    84
  trying to continue reading WAVECAR, but it might fail
 POSCAR found type information on POSCAR Na
 POSCAR found :  1 types and       2 ions
 scaLAPACK will be used
 LDA part: xc-table for Pade appr. of Perdew
 LDA part: xc-table for Pade appr. of Perdew
 found WAVECAR, reading the header
  number of k-points has changed, file:    56 present:    84
  trying to continue reading WAVECAR, but it might fail
 found WAVECAR, reading the header
  number of k-points has changed, file:    56 present:    84
  trying to continue reading WAVECAR, but it might fail
 POSCAR, INCAR and KPOINTS ok, starting setup
 found WAVECAR, reading the header
  number of k-points has changed, file:    56 present:    84
  trying to continue reading WAVECAR, but it might fail
 FFT: planning ...
 reading WAVECAR
 the WAVECAR file was read successfully
 initial charge from wavefunction
 entering main loop
       N       E                     dE             d eps       ncg     rms          rms(c)
DAV:   1    -0.226039293288E+01   -0.22604E+01   -0.22623E-01  1045   0.139E+00BRMIX: very serious problems
 the old and the new charge density differ
 old charge density:     1.12006 new    2.00000
    0.100E+00
DAV:   2    -0.259958028181E+01   -0.33919E+00   -0.85604E-02  1045   0.144E+00    0.133E-01
 POSCAR, INCAR and KPOINTS ok, starting setup
 FFT: planning ...
 reading WAVECAR
 the WAVECAR file was read successfully
 initial charge from wavefunction
DAV:   3    -0.259789641826E+01    0.16839E-02   -0.25648E-04   995   0.884E-02 entering main loop
    0.511E-02
 POSCAR, INCAR and KPOINTS ok, starting setup
 FFT: planning ...
 reading WAVECAR
 the WAVECAR file was read successfully
 initial charge from wavefunction
 entering main loop
DAV:   4    -0.259766110675E+01    0.23531E-03   -0.20219E-05   710   0.218E-02    0.605E-03
DAV:   5    -0.259765063072E+01    0.10476E-04   -0.10576E-06   450   0.666E-03
       N       E                     dE             d eps       ncg     rms          rms(c)
   1 F= -.25976506E+01 E0= -.25973390E+01  d E =-.259765E+01
 BRION: g(F)=  0.852E-55 g(S)=  0.000E+00
 reached required accuracy - stopping structural energy minimisation
 POSCAR, INCAR and KPOINTS ok, starting setup
 FFT: planning ...
 reading WAVECAR
 the WAVECAR file was read successfully
 initial charge from wavefunction
 entering main loop
DAV:   1    -0.226039293288E+01   -0.22604E+01   -0.22623E-01  1045   0.139E+00BRMIX: very serious problems
 the old and the new charge density differ
 old charge density:     1.12006 new    2.00000
    0.100E+00
       N       E                     dE             d eps       ncg     rms          rms(c)
       N       E                     dE             d eps       ncg     rms          rms(c)
DAV:   2    -0.259958028181E+01   -0.33919E+00   -0.85604E-02  1045   0.144E+00    0.133E-01
DAV:   3    -0.259789641826E+01    0.16839E-02   -0.25648E-04   995   0.884E-02    0.511E-02
DAV:   4    -0.259766110675E+01    0.23531E-03   -0.20219E-05   710   0.218E-02    0.605E-03
DAV:   1    -0.226039293288E+01   -0.22604E+01   -0.22623E-01  1045   0.139E+00DAV:   5    -0.259765063072E+01    0.10476E-04   -0.10576E-06   450   0.666E-03
BRMIX: very serious problems
 the old and the new charge density differ
 old charge density:     1.12006 new    2.00000
    0.100E+00
   1 F= -.25976506E+01 E0= -.25973390E+01  d E =-.259765E+01
 BRION: g(F)=  0.852E-55 g(S)=  0.000E+00
 reached required accuracy - stopping structural energy minimisation
DAV:   2    -0.259958028181E+01   -0.33919E+00   -0.85604E-02  1045   0.144E+00    0.133E-01
 writing wavefunctions
DAV:   3    -0.259789641826E+01    0.16839E-02   -0.25648E-04   995   0.884E-02    0.511E-02
DAV:   1    -0.226039293288E+01   -0.22604E+01   -0.22623E-01  1045   0.139E+00BRMIX: very serious problems
 the old and the new charge density differ
 old charge density:     1.12006 new    2.00000
    0.100E+00
DAV:   4    -0.259766110675E+01    0.23531E-03   -0.20219E-05   710   0.218E-02    0.605E-03
DAV:   2    -0.259958028181E+01   -0.33919E+00   -0.85604E-02  1045   0.144E+00DAV:   5    -0.259765063072E+01    0.10476E-04   -0.10576E-06   450   0.666E-03
    0.133E-01
DAV:   3    -0.259789641826E+01    0.16839E-02   -0.25648E-04   995   0.884E-02   1 F= -.25976506E+01 E0= -.25973390E+01  d E =-.259765E+01
 BRION: g(F)=  0.852E-55 g(S)=  0.000E+00
 reached required accuracy - stopping structural energy minimisation
    0.511E-02
DAV:   4    -0.259766110675E+01    0.23531E-03   -0.20219E-05   710   0.218E-02    0.605E-03
DAV:   5    -0.259765063072E+01    0.10476E-04   -0.10576E-06   450   0.666E-03
   1 F= -.25976506E+01 E0= -.25973390E+01  d E =-.259765E+01
 BRION: g(F)=  0.852E-55 g(S)=  0.000E+00
 reached required accuracy - stopping structural energy minimisation
 writing wavefunctions
 writing wavefunctions
 writing wavefunctions
Note: The following floating-point exceptions are signalling: IEEE_UNDERFLOW_FLAG IEEE_DENORMAL
Note: The following floating-point exceptions are signalling: IEEE_UNDERFLOW_FLAG IEEE_DENORMAL
Note: The following floating-point exceptions are signalling: IEEE_UNDERFLOW_FLAG IEEE_DENORMAL
Note: The following floating-point exceptions are signalling: IEEE_UNDERFLOW_FLAG IEEE_DENORMAL
 running on    1 total cores
 distrk:  each k-point on    1 cores,    1 groups
 distr:  one band on    1 cores,    1 groups
 running on    1 total cores
 running on    1 total cores
 running on    1 total cores
 distrk:  each k-point on    1 cores,    1 groups
 distrk:  each k-point on    1 cores,    1 groups
 distrk:  each k-point on    1 cores,    1 groups
 distr:  one band on    1 cores,    1 groups
 distr:  one band on    1 cores,    1 groups
 distr:  one band on    1 cores,    1 groups
 vasp.6.2.1 16May21 (build Dec 20 2021 17:02:34) complex                         
 vasp.6.2.1 16May21 (build Dec 20 2021 17:02:34) complex                         
 POSCAR found type information on POSCAR Na
 POSCAR found :  1 types and       2 ions
 scaLAPACK will be used
 vasp.6.2.1 16May21 (build Dec 20 2021 17:02:34) complex                         
 POSCAR found type information on POSCAR Na
 POSCAR found :  1 types and       2 ions
 scaLAPACK will be used
 LDA part: xc-table for Pade appr. of Perdew
 LDA part: xc-table for Pade appr. of Perdew
 vasp.6.2.1 16May21 (build Dec 20 2021 17:02:34) complex                         
 POSCAR found type information on POSCAR Na
 POSCAR found :  1 types and       2 ions
 scaLAPACK will be used
 found WAVECAR, reading the header
  number of k-points has changed, file:    84 present:     4
  trying to continue reading WAVECAR, but it might fail
 WAVECAR: different cutoff or change in lattice found
 POSCAR found type information on POSCAR Na
 POSCAR found :  1 types and       2 ions
 scaLAPACK will be used
 LDA part: xc-table for Pade appr. of Perdew
 LDA part: xc-table for Pade appr. of Perdew
 found WAVECAR, reading the header
  number of k-points has changed, file:    84 present:     4
  trying to continue reading WAVECAR, but it might fail
 WAVECAR: different cutoff or change in lattice found
 found WAVECAR, reading the header
  number of k-points has changed, file:    84 present:     4
  trying to continue reading WAVECAR, but it might fail
 WAVECAR: different cutoff or change in lattice found
 found WAVECAR, reading the header
  number of k-points has changed, file:    84 present:     4
  trying to continue reading WAVECAR, but it might fail
 WAVECAR: different cutoff or change in lattice found
 POSCAR, INCAR and KPOINTS ok, starting setup
 FFT: planning ...
 reading WAVECAR
 the WAVECAR file was read successfully
 initial charge from wavefunction
 entering main loop
       N       E                     dE             d eps       ncg     rms          rms(c)
 POSCAR, INCAR and KPOINTS ok, starting setup
 FFT: planning ...
 reading WAVECAR
 the WAVECAR file was read successfully
 initial charge from wavefunction
 entering main loop
       N       E                     dE             d eps       ncg     rms          rms(c)
DAV:   1    -0.274218923308E+01   -0.27422E+01   -0.37136E-01    40   0.329E+00    0.520E-02
DAV:   2    -0.274237835547E+01   -0.18912E-03   -0.16724E-03    40   0.252E-01    0.359E-02
DAV:   3    -0.274237880085E+01   -0.44539E-06   -0.44898E-05    35   0.497E-02
   1 F= -.27423788E+01 E0= -.27435243E+01  d E =-.274238E+01
 BRION: g(F)=  0.108E-54 g(S)=  0.000E+00
 reached required accuracy - stopping structural energy minimisation
 POSCAR, INCAR and KPOINTS ok, starting setup
 FFT: planning ...
DAV:   1    -0.274218923308E+01   -0.27422E+01   -0.37136E-01    40   0.329E+00    0.520E-02
 reading WAVECAR
 the WAVECAR file was read successfully
 initial charge from wavefunction
 entering main loop
DAV:   2    -0.274237835547E+01   -0.18912E-03   -0.16724E-03    40   0.252E-01    0.359E-02
DAV:   3    -0.274237880085E+01   -0.44539E-06   -0.44898E-05    35   0.497E-02
 POSCAR, INCAR and KPOINTS ok, starting setup
 FFT: planning ...
 reading WAVECAR
 the WAVECAR file was read successfully
 initial charge from wavefunction
 entering main loop
   1 F= -.27423788E+01 E0= -.27435243E+01  d E =-.274238E+01
 BRION: g(F)=  0.108E-54 g(S)=  0.000E+00
 reached required accuracy - stopping structural energy minimisation
       N       E                     dE             d eps       ncg     rms          rms(c)
       N       E                     dE             d eps       ncg     rms          rms(c)
 writing wavefunctions
DAV:   1    -0.274218923308E+01   -0.27422E+01   -0.37136E-01    40   0.329E+00    0.520E-02
DAV:   2    -0.274237835547E+01   -0.18912E-03   -0.16724E-03    40   0.252E-01    0.359E-02
DAV:   3    -0.274237880085E+01   -0.44539E-06   -0.44898E-05    35   0.497E-02
   1 F= -.27423788E+01 E0= -.27435243E+01  d E =-.274238E+01
 BRION: g(F)=  0.108E-54 g(S)=  0.000E+00
 reached required accuracy - stopping structural energy minimisation
DAV:   1    -0.274218923308E+01   -0.27422E+01   -0.37136E-01    40   0.329E+00    0.520E-02
DAV:   2    -0.274237835547E+01   -0.18912E-03   -0.16724E-03    40   0.252E-01    0.359E-02
DAV:   3    -0.274237880085E+01   -0.44539E-06   -0.44898E-05    35   0.497E-02
 writing wavefunctions
   1 F= -.27423788E+01 E0= -.27435243E+01  d E =-.274238E+01
 BRION: g(F)=  0.108E-54 g(S)=  0.000E+00
 reached required accuracy - stopping structural energy minimisation
 writing wavefunctions
 writing wavefunctions
Note: The following floating-point exceptions are signalling: IEEE_UNDERFLOW_FLAG IEEE_DENORMAL
Note: The following floating-point exceptions are signalling: IEEE_UNDERFLOW_FLAG IEEE_DENORMAL
Note: The following floating-point exceptions are signalling: IEEE_UNDERFLOW_FLAG IEEE_DENORMAL
Note: The following floating-point exceptions are signalling: IEEE_UNDERFLOW_FLAG IEEE_DENORMAL
 running on    1 total cores
 distrk:  each k-point on    1 cores,    1 groups
 distr:  one band on    1 cores,    1 groups
 running on    1 total cores
 distrk:  each k-point on    1 cores,    1 groups
 distr:  one band on    1 cores,    1 groups
 running on    1 total cores
 running on    1 total cores
 distrk:  each k-point on    1 cores,    1 groups
 distrk:  each k-point on    1 cores,    1 groups
 distr:  one band on    1 cores,    1 groups
 distr:  one band on    1 cores,    1 groups
 vasp.6.2.1 16May21 (build Dec 20 2021 17:02:34) complex                         
 vasp.6.2.1 16May21 (build Dec 20 2021 17:02:34) complex                         
 POSCAR found type information on POSCAR Na
 POSCAR found :  1 types and       2 ions
 scaLAPACK will be used
 vasp.6.2.1 16May21 (build Dec 20 2021 17:02:34) complex                         
 POSCAR found type information on POSCAR Na
 POSCAR found :  1 types and       2 ions
 scaLAPACK will be used
 LDA part: xc-table for Pade appr. of Perdew
 vasp.6.2.1 16May21 (build Dec 20 2021 17:02:34) complex                         
 LDA part: xc-table for Pade appr. of Perdew
 POSCAR found type information on POSCAR Na
 POSCAR found :  1 types and       2 ions
 scaLAPACK will be used
 POSCAR found type information on POSCAR Na
 POSCAR found :  1 types and       2 ions
 found WAVECAR, reading the header
  number of k-points has changed, file:     4 present:    10
  trying to continue reading WAVECAR, but it might fail
 scaLAPACK will be used
 LDA part: xc-table for Pade appr. of Perdew
 LDA part: xc-table for Pade appr. of Perdew
 found WAVECAR, reading the header
  number of k-points has changed, file:     4 present:    10
  trying to continue reading WAVECAR, but it might fail
 found WAVECAR, reading the header
  number of k-points has changed, file:     4 present:    10
  trying to continue reading WAVECAR, but it might fail
 found WAVECAR, reading the header
  number of k-points has changed, file:     4 present:    10
  trying to continue reading WAVECAR, but it might fail
 POSCAR, INCAR and KPOINTS ok, starting setup
 FFT: planning ...
 reading WAVECAR
 the WAVECAR file was read successfully
 initial charge from wavefunction
 entering main loop
       N       E                     dE             d eps       ncg     rms          rms(c)
 POSCAR, INCAR and KPOINTS ok, starting setup
 FFT: planning ...
 reading WAVECAR
 the WAVECAR file was read successfully
 initial charge from wavefunction
 entering main loop
       N       E                     dE             d eps       ncg     rms          rms(c)
DAV:   1    -0.257148289986E+01   -0.25715E+01   -0.33890E-01   130   0.269E+00    0.227E-02
DAV:   2    -0.257254308379E+01   -0.10602E-02   -0.10488E-02   115   0.459E-01    0.138E-02
DAV:   3    -0.257255433849E+01   -0.11255E-04   -0.73689E-05   100   0.401E-02
   1 F= -.25725543E+01 E0= -.25739278E+01  d E =-.257255E+01
 BRION: g(F)=  0.699E-54 g(S)=  0.000E+00
 reached required accuracy - stopping structural energy minimisation
DAV:   1    -0.257148289986E+01   -0.25715E+01   -0.33890E-01   130   0.269E+00    0.227E-02
DAV:   2    -0.257254308379E+01   -0.10602E-02   -0.10488E-02   115   0.459E-01    0.138E-02
DAV:   3    -0.257255433849E+01   -0.11255E-04   -0.73689E-05   100   0.401E-02
 POSCAR, INCAR and KPOINTS ok, starting setup
 FFT: planning ...
   1 F= -.25725543E+01 E0= -.25739278E+01  d E =-.257255E+01
 BRION: g(F)=  0.699E-54 g(S)=  0.000E+00
 reached required accuracy - stopping structural energy minimisation
 reading WAVECAR
 the WAVECAR file was read successfully
 initial charge from wavefunction
 entering main loop
       N       E                     dE             d eps       ncg     rms          rms(c)
 POSCAR, INCAR and KPOINTS ok, starting setup
 FFT: planning ...
 reading WAVECAR
 the WAVECAR file was read successfully
 initial charge from wavefunction
 entering main loop
       N       E                     dE             d eps       ncg     rms          rms(c)
DAV:   1    -0.257148289986E+01   -0.25715E+01   -0.33890E-01   130   0.269E+00    0.227E-02
DAV:   2    -0.257254308379E+01   -0.10602E-02   -0.10488E-02   115   0.459E-01    0.138E-02
DAV:   3    -0.257255433849E+01   -0.11255E-04   -0.73689E-05   100   0.401E-02
   1 F= -.25725543E+01 E0= -.25739278E+01  d E =-.257255E+01
 BRION: g(F)=  0.699E-54 g(S)=  0.000E+00
 reached required accuracy - stopping structural energy minimisation
DAV:   1    -0.257148289986E+01   -0.25715E+01   -0.33890E-01   130   0.269E+00    0.227E-02
DAV:   2    -0.257254308379E+01   -0.10602E-02   -0.10488E-02   115   0.459E-01    0.138E-02
DAV:   3    -0.257255433849E+01   -0.11255E-04   -0.73689E-05   100   0.401E-02
   1 F= -.25725543E+01 E0= -.25739278E+01  d E =-.257255E+01
 BRION: g(F)=  0.699E-54 g(S)=  0.000E+00
 reached required accuracy - stopping structural energy minimisation
 writing wavefunctions
 writing wavefunctions
 writing wavefunctions
 writing wavefunctions
Note: The following floating-point exceptions are signalling: IEEE_UNDERFLOW_FLAG IEEE_DENORMAL
Note: The following floating-point exceptions are signalling: IEEE_UNDERFLOW_FLAG IEEE_DENORMAL
Note: The following floating-point exceptions are signalling: IEEE_UNDERFLOW_FLAG IEEE_DENORMAL
Note: The following floating-point exceptions are signalling: IEEE_UNDERFLOW_FLAG IEEE_DENORMAL
 running on    1 total cores
 running on    1 total cores
 running on    1 total cores
 distrk:  each k-point on    1 cores,    1 groups
 distr:  one band on    1 cores,    1 groups
 distrk:  each k-point on    1 cores,    1 groups
 distr:  one band on    1 cores,    1 groups
 distrk:  each k-point on    1 cores,    1 groups
 distr:  one band on    1 cores,    1 groups
 running on    1 total cores
 distrk:  each k-point on    1 cores,    1 groups
 distr:  one band on    1 cores,    1 groups
 vasp.6.2.1 16May21 (build Dec 20 2021 17:02:34) complex                         
 vasp.6.2.1 16May21 (build Dec 20 2021 17:02:34) complex                         
 POSCAR found type information on POSCAR Na
 POSCAR found :  1 types and       2 ions
 scaLAPACK will be used
 vasp.6.2.1 16May21 (build Dec 20 2021 17:02:34) complex                         
 POSCAR found type information on POSCAR Na
 POSCAR found :  1 types and       2 ions
 scaLAPACK will be used
 LDA part: xc-table for Pade appr. of Perdew
 LDA part: xc-table for Pade appr. of Perdew
 vasp.6.2.1 16May21 (build Dec 20 2021 17:02:34) complex                         
 POSCAR found type information on POSCAR Na
 POSCAR found :  1 types and       2 ions
 scaLAPACK will be used
 POSCAR found type information on POSCAR Na
 POSCAR found :  1 types and       2 ions
 found WAVECAR, reading the header
  number of k-points has changed, file:    10 present:    20
  trying to continue reading WAVECAR, but it might fail
 scaLAPACK will be used
 LDA part: xc-table for Pade appr. of Perdew
 LDA part: xc-table for Pade appr. of Perdew
 found WAVECAR, reading the header
  number of k-points has changed, file:    10 present:    20
  trying to continue reading WAVECAR, but it might fail
 found WAVECAR, reading the header
  number of k-points has changed, file:    10 present:    20
  trying to continue reading WAVECAR, but it might fail
 found WAVECAR, reading the header
  number of k-points has changed, file:    10 present:    20
  trying to continue reading WAVECAR, but it might fail
 POSCAR, INCAR and KPOINTS ok, starting setup
 FFT: planning ...
 reading WAVECAR
 the WAVECAR file was read successfully
 initial charge from wavefunction
 entering main loop
       N       E                     dE             d eps       ncg     rms          rms(c)
 POSCAR, INCAR and KPOINTS ok, starting setup
 FFT: planning ...
 reading WAVECAR
 the WAVECAR file was read successfully
 initial charge from wavefunction
 entering main loop
       N       E                     dE             d eps       ncg     rms          rms(c)
DAV:   1    -0.177837054023E+01   -0.17784E+01   -0.18579E-01   260   0.118E+00BRMIX: very serious problems
 the old and the new charge density differ
 old charge density:     0.71326 new    2.00000
    0.147E+00
 POSCAR, INCAR and KPOINTS ok, starting setup
 FFT: planning ...
DAV:   2    -0.260024562325E+01   -0.82188E+00   -0.21995E-01   230   0.230E+00    0.199E-01
 reading WAVECAR
 the WAVECAR file was read successfully
 initial charge from wavefunction
 entering main loop
DAV:   3    -0.260105936286E+01   -0.81374E-03   -0.15134E-03   235   0.232E-01    0.211E-01
DAV:   4    -0.259613397565E+01    0.49254E-02   -0.21509E-04   235   0.810E-02DAV:   1    -0.177837054023E+01   -0.17784E+01   -0.18579E-01   260   0.118E+00    0.650E-02
BRMIX: very serious problems
 the old and the new charge density differ
 old charge density:     0.71326 new    2.00000
    0.147E+00
DAV:   5    -0.259612289097E+01    0.11085E-04   -0.34379E-06   120   0.943E-03
DAV:   2    -0.260024562325E+01   -0.82188E+00   -0.21995E-01   230   0.230E+00    0.199E-01
DAV:   3    -0.260105936286E+01   -0.81374E-03   -0.15134E-03   235   0.232E-01    0.211E-01
DAV:   4    -0.259613397565E+01    0.49254E-02   -0.21509E-04   235   0.810E-02    0.650E-02
DAV:   5    -0.259612289097E+01    0.11085E-04   -0.34379E-06   120   0.943E-03
 POSCAR, INCAR and KPOINTS ok, starting setup
       N       E                     dE             d eps       ncg     rms          rms(c)
 FFT: planning ...
 reading WAVECAR
 the WAVECAR file was read successfully
 initial charge from wavefunction
 entering main loop
   1 F= -.25961229E+01 E0= -.25965505E+01  d E =-.259612E+01
   1 F= -.25961229E+01 E0= -.25965505E+01  d E =-.259612E+01
 BRION: g(F)=  0.401E-54 g(S)=  0.000E+00
 reached required accuracy - stopping structural energy minimisation
 BRION: g(F)=  0.401E-54 g(S)=  0.000E+00
 reached required accuracy - stopping structural energy minimisation
DAV:   1    -0.177837054023E+01   -0.17784E+01   -0.18579E-01   260   0.118E+00       N       E                     dE             d eps       ncg     rms          rms(c)
BRMIX: very serious problems
 the old and the new charge density differ
 old charge density:     0.71326 new    2.00000
    0.147E+00
DAV:   2    -0.260024562325E+01   -0.82188E+00   -0.21995E-01   230   0.230E+00    0.199E-01
DAV:   3    -0.260105936286E+01   -0.81374E-03   -0.15134E-03   235   0.232E-01    0.211E-01
DAV:   4    -0.259613397565E+01    0.49254E-02   -0.21509E-04   235   0.810E-02    0.650E-02
DAV:   5    -0.259612289097E+01    0.11085E-04   -0.34379E-06   120   0.943E-03
   1 F= -.25961229E+01 E0= -.25965505E+01  d E =-.259612E+01
 BRION: g(F)=  0.401E-54 g(S)=  0.000E+00
 reached required accuracy - stopping structural energy minimisation
DAV:   1    -0.177837054023E+01   -0.17784E+01   -0.18579E-01   260   0.118E+00BRMIX: very serious problems
 the old and the new charge density differ
 old charge density:     0.71326 new    2.00000
    0.147E+00
DAV:   2    -0.260024562325E+01   -0.82188E+00   -0.21995E-01   230   0.230E+00    0.199E-01
DAV:   3    -0.260105936286E+01   -0.81374E-03   -0.15134E-03   235   0.232E-01    0.211E-01
DAV:   4    -0.259613397565E+01    0.49254E-02   -0.21509E-04   235   0.810E-02    0.650E-02
DAV:   5    -0.259612289097E+01    0.11085E-04   -0.34379E-06   120   0.943E-03
   1 F= -.25961229E+01 E0= -.25965505E+01  d E =-.259612E+01
 BRION: g(F)=  0.401E-54 g(S)=  0.000E+00
 reached required accuracy - stopping structural energy minimisation
 writing wavefunctions
 writing wavefunctions
 writing wavefunctions
 writing wavefunctions
Note: The following floating-point exceptions are signalling: IEEE_UNDERFLOW_FLAG IEEE_DENORMAL
Note: The following floating-point exceptions are signalling: IEEE_UNDERFLOW_FLAG IEEE_DENORMAL
Note: The following floating-point exceptions are signalling: IEEE_UNDERFLOW_FLAG IEEE_DENORMAL
Note: The following floating-point exceptions are signalling: IEEE_UNDERFLOW_FLAG IEEE_DENORMAL
 running on    1 total cores
 distrk:  each k-point on    1 cores,    1 groups
 distr:  one band on    1 cores,    1 groups
 running on    1 total cores
 distrk:  each k-point on    1 cores,    1 groups
 distr:  one band on    1 cores,    1 groups
 running on    1 total cores
 running on    1 total cores
 distrk:  each k-point on    1 cores,    1 groups
 distr:  one band on    1 cores,    1 groups
 distrk:  each k-point on    1 cores,    1 groups
 distr:  one band on    1 cores,    1 groups
 vasp.6.2.1 16May21 (build Dec 20 2021 17:02:34) complex                         
 vasp.6.2.1 16May21 (build Dec 20 2021 17:02:34) complex                         
 POSCAR found type information on POSCAR Na
 POSCAR found :  1 types and       2 ions
 scaLAPACK will be used
 vasp.6.2.1 16May21 (build Dec 20 2021 17:02:34) complex                         
 POSCAR found type information on POSCAR Na
 POSCAR found :  1 types and       2 ions
 scaLAPACK will be used
 LDA part: xc-table for Pade appr. of Perdew
 LDA part: xc-table for Pade appr. of Perdew
 vasp.6.2.1 16May21 (build Dec 20 2021 17:02:34) complex                         
 POSCAR found type information on POSCAR Na
 POSCAR found :  1 types and       2 ions
 scaLAPACK will be used
 found WAVECAR, reading the header
  number of k-points has changed, file:    20 present:    35
  trying to continue reading WAVECAR, but it might fail
 POSCAR found type information on POSCAR Na
 POSCAR found :  1 types and       2 ions
 scaLAPACK will be used
 LDA part: xc-table for Pade appr. of Perdew
 LDA part: xc-table for Pade appr. of Perdew
 found WAVECAR, reading the header
  number of k-points has changed, file:    20 present:    35
  trying to continue reading WAVECAR, but it might fail
 found WAVECAR, reading the header
  number of k-points has changed, file:    20 present:    35
  trying to continue reading WAVECAR, but it might fail
 found WAVECAR, reading the header
  number of k-points has changed, file:    20 present:    35
  trying to continue reading WAVECAR, but it might fail
 POSCAR, INCAR and KPOINTS ok, starting setup
 FFT: planning ...
 reading WAVECAR
 the WAVECAR file was read successfully
 initial charge from wavefunction
 entering main loop
       N       E                     dE             d eps       ncg     rms          rms(c)
DAV:   1    -0.197704458921E+01   -0.19770E+01   -0.21396E-01   475   0.124E+00BRMIX: very serious problems
 the old and the new charge density differ
 old charge density:     0.84167 new    2.00000
    0.132E+00
DAV:   2    -0.261470077295E+01   -0.63766E+00   -0.15272E-01   430   0.195E+00    0.180E-01
DAV:   3    -0.261429907981E+01    0.40169E-03   -0.72971E-04   390   0.156E-01    0.167E-01
DAV:   4    -0.261128421484E+01    0.30149E-02   -0.25383E-04   355   0.847E-02    0.129E-02
DAV:   5    -0.261127860898E+01    0.56059E-05   -0.21565E-06   185   0.919E-03
 POSCAR, INCAR and KPOINTS ok, starting setup
 FFT: planning ...
   1 F= -.26112786E+01 E0= -.26122623E+01  d E =-.261128E+01
 BRION: g(F)=  0.446E-54 g(S)=  0.000E+00
 reached required accuracy - stopping structural energy minimisation
 reading WAVECAR
 the WAVECAR file was read successfully
 initial charge from wavefunction
 entering main loop
       N       E                     dE             d eps       ncg     rms          rms(c)
 POSCAR, INCAR and KPOINTS ok, starting setup
 FFT: planning ...
 reading WAVECAR
 the WAVECAR file was read successfully
 initial charge from wavefunction
 entering main loop
       N       E                     dE             d eps       ncg     rms          rms(c)
DAV:   1    -0.197704458921E+01   -0.19770E+01   -0.21396E-01   475   0.124E+00BRMIX: very serious problems
 the old and the new charge density differ
 old charge density:     0.84167 new    2.00000
    0.132E+00
 POSCAR, INCAR and KPOINTS ok, starting setup
 FFT: planning ...
 reading WAVECAR
 the WAVECAR file was read successfully
 initial charge from wavefunction
 entering main loop
DAV:   2    -0.261470077295E+01   -0.63766E+00   -0.15272E-01   430   0.195E+00    0.180E-01
       N       E                     dE             d eps       ncg     rms          rms(c)
DAV:   3    -0.261429907981E+01    0.40169E-03   -0.72971E-04   390   0.156E-01    0.167E-01
DAV:   4    -0.261128421484E+01    0.30149E-02   -0.25383E-04   355   0.847E-02    0.129E-02
DAV:   1    -0.197704458921E+01   -0.19770E+01   -0.21396E-01   475   0.124E+00BRMIX: very serious problems
 the old and the new charge density differ
 old charge density:     0.84167 new    2.00000
    0.132E+00
DAV:   5    -0.261127860898E+01    0.56059E-05   -0.21565E-06   185   0.919E-03
   1 F= -.26112786E+01 E0= -.26122623E+01  d E =-.261128E+01
 BRION: g(F)=  0.446E-54 g(S)=  0.000E+00
 reached required accuracy - stopping structural energy minimisation
DAV:   2    -0.261470077295E+01   -0.63766E+00   -0.15272E-01   430   0.195E+00    0.180E-01
 writing wavefunctions
DAV:   3    -0.261429907981E+01    0.40169E-03   -0.72971E-04   390   0.156E-01    0.167E-01
DAV:   4    -0.261128421484E+01    0.30149E-02   -0.25383E-04   355   0.847E-02    0.129E-02
DAV:   1    -0.197704458921E+01   -0.19770E+01   -0.21396E-01   475   0.124E+00BRMIX: very serious problems
 the old and the new charge density differ
 old charge density:     0.84167 new    2.00000
    0.132E+00
DAV:   5    -0.261127860898E+01    0.56059E-05   -0.21565E-06   185   0.919E-03
DAV:   2    -0.261470077295E+01   -0.63766E+00   -0.15272E-01   430   0.195E+00    0.180E-01
   1 F= -.26112786E+01 E0= -.26122623E+01  d E =-.261128E+01
 BRION: g(F)=  0.446E-54 g(S)=  0.000E+00
 reached required accuracy - stopping structural energy minimisation
DAV:   3    -0.261429907981E+01    0.40169E-03   -0.72971E-04   390   0.156E-01    0.167E-01
DAV:   4    -0.261128421484E+01    0.30149E-02   -0.25383E-04   355   0.847E-02    0.129E-02
DAV:   5    -0.261127860898E+01    0.56059E-05   -0.21565E-06   185   0.919E-03
   1 F= -.26112786E+01 E0= -.26122623E+01  d E =-.261128E+01
 BRION: g(F)=  0.446E-54 g(S)=  0.000E+00
 reached required accuracy - stopping structural energy minimisation
 writing wavefunctions
 writing wavefunctions
 writing wavefunctions
Note: The following floating-point exceptions are signalling: IEEE_UNDERFLOW_FLAG IEEE_DENORMAL
Note: The following floating-point exceptions are signalling: IEEE_UNDERFLOW_FLAG IEEE_DENORMAL
Note: The following floating-point exceptions are signalling: IEEE_UNDERFLOW_FLAG IEEE_DENORMAL
Note: The following floating-point exceptions are signalling: IEEE_UNDERFLOW_FLAG IEEE_DENORMAL
 running on    1 total cores
 distrk:  each k-point on    1 cores,    1 groups
 distr:  one band on    1 cores,    1 groups
 running on    1 total cores
 running on    1 total cores
 running on    1 total cores
 distrk:  each k-point on    1 cores,    1 groups
 distrk:  each k-point on    1 cores,    1 groups
 distrk:  each k-point on    1 cores,    1 groups
 distr:  one band on    1 cores,    1 groups
 distr:  one band on    1 cores,    1 groups
 distr:  one band on    1 cores,    1 groups
 vasp.6.2.1 16May21 (build Dec 20 2021 17:02:34) complex                         
 vasp.6.2.1 16May21 (build Dec 20 2021 17:02:34) complex                         
 POSCAR found type information on POSCAR Na
 POSCAR found :  1 types and       2 ions
 scaLAPACK will be used
 vasp.6.2.1 16May21 (build Dec 20 2021 17:02:34) complex                         
 POSCAR found type information on POSCAR Na
 POSCAR found :  1 types and       2 ions
 scaLAPACK will be used
 LDA part: xc-table for Pade appr. of Perdew
 vasp.6.2.1 16May21 (build Dec 20 2021 17:02:34) complex                         
 LDA part: xc-table for Pade appr. of Perdew
 POSCAR found type information on POSCAR Na
 POSCAR found :  1 types and       2 ions
 scaLAPACK will be used
 found WAVECAR, reading the header
  number of k-points has changed, file:    35 present:    56
  trying to continue reading WAVECAR, but it might fail
 POSCAR found type information on POSCAR Na
 POSCAR found :  1 types and       2 ions
 scaLAPACK will be used
 LDA part: xc-table for Pade appr. of Perdew
 LDA part: xc-table for Pade appr. of Perdew
 found WAVECAR, reading the header
  number of k-points has changed, file:    35 present:    56
  trying to continue reading WAVECAR, but it might fail
 found WAVECAR, reading the header
  number of k-points has changed, file:    35 present:    56
  trying to continue reading WAVECAR, but it might fail
 found WAVECAR, reading the header
  number of k-points has changed, file:    35 present:    56
  trying to continue reading WAVECAR, but it might fail
 POSCAR, INCAR and KPOINTS ok, starting setup
 FFT: planning ...
 reading WAVECAR
 the WAVECAR file was read successfully
 initial charge from wavefunction
 entering main loop
       N       E                     dE             d eps       ncg     rms          rms(c)
DAV:   1    -0.215660059057E+01   -0.21566E+01   -0.25726E-01   720   0.138E+00BRMIX: very serious problems
 the old and the new charge density differ
 old charge density:     0.99605 new    2.00000
    0.115E+00
 POSCAR, INCAR and KPOINTS ok, starting setup
 FFT: planning ...
 reading WAVECAR
 the WAVECAR file was read successfully
 initial charge from wavefunction
 entering main loop
DAV:   2    -0.261215421513E+01   -0.45555E+00   -0.10859E-01   645   0.162E+00    0.154E-01
DAV:   3    -0.261094900019E+01    0.12052E-02   -0.68375E-04   650   0.149E-01    0.112E-01
DAV:   4    -0.260962046431E+01    0.13285E-02   -0.10076E-04   605   0.530E-02    0.703E-03
 POSCAR, INCAR and KPOINTS ok, starting setup
 FFT: planning ...
 reading WAVECAR
 the WAVECAR file was read successfully
 initial charge from wavefunction
 entering main loop
DAV:   5    -0.260960813888E+01    0.12325E-04   -0.14275E-06   295   0.817E-03
       N       E                     dE             d eps       ncg     rms          rms(c)
   1 F= -.26096081E+01 E0= -.26104553E+01  d E =-.260961E+01
 BRION: g(F)=  0.750E-55 g(S)=  0.000E+00
 reached required accuracy - stopping structural energy minimisation
 POSCAR, INCAR and KPOINTS ok, starting setup
 FFT: planning ...
 reading WAVECAR
 the WAVECAR file was read successfully
 initial charge from wavefunction
 entering main loop
       N       E                     dE             d eps       ncg     rms          rms(c)
       N       E                     dE             d eps       ncg     rms          rms(c)
DAV:   1    -0.215660059057E+01   -0.21566E+01   -0.25726E-01   720   0.138E+00BRMIX: very serious problems
 the old and the new charge density differ
 old charge density:     0.99605 new    2.00000
    0.115E+00
DAV:   2    -0.261215421513E+01   -0.45555E+00   -0.10859E-01   645   0.162E+00    0.154E-01
DAV:   3    -0.261094900019E+01    0.12052E-02   -0.68375E-04   650   0.149E-01    0.112E-01
DAV:   4    -0.260962046431E+01    0.13285E-02   -0.10076E-04   605   0.530E-02    0.703E-03
DAV:   1    -0.215660059057E+01   -0.21566E+01   -0.25726E-01   720   0.138E+00BRMIX: very serious problems
 the old and the new charge density differ
 old charge density:     0.99605 new    2.00000
    0.115E+00
DAV:   5    -0.260960813888E+01    0.12325E-04   -0.14275E-06   295   0.817E-03
DAV:   2    -0.261215421513E+01   -0.45555E+00   -0.10859E-01   645   0.162E+00    0.154E-01
   1 F= -.26096081E+01 E0= -.26104553E+01  d E =-.260961E+01
 BRION: g(F)=  0.750E-55 g(S)=  0.000E+00
 reached required accuracy - stopping structural energy minimisation
DAV:   3    -0.261094900019E+01    0.12052E-02   -0.68375E-04   650   0.149E-01    0.112E-01
DAV:   1    -0.215660059057E+01   -0.21566E+01   -0.25726E-01   720   0.138E+00BRMIX: very serious problems
 the old and the new charge density differ
 old charge density:     0.99605 new    2.00000
    0.115E+00
DAV:   4    -0.260962046431E+01    0.13285E-02   -0.10076E-04   605   0.530E-02    0.703E-03
DAV:   2    -0.261215421513E+01   -0.45555E+00   -0.10859E-01   645   0.162E+00DAV:   5    -0.260960813888E+01    0.12325E-04   -0.14275E-06   295   0.817E-03
    0.154E-01
   1 F= -.26096081E+01 E0= -.26104553E+01  d E =-.260961E+01
 BRION: g(F)=  0.750E-55 g(S)=  0.000E+00
 reached required accuracy - stopping structural energy minimisation
DAV:   3    -0.261094900019E+01    0.12052E-02   -0.68375E-04   650   0.149E-01    0.112E-01
 writing wavefunctions
DAV:   4    -0.260962046431E+01    0.13285E-02   -0.10076E-04   605   0.530E-02    0.703E-03
DAV:   5    -0.260960813888E+01    0.12325E-04   -0.14275E-06   295   0.817E-03
   1 F= -.26096081E+01 E0= -.26104553E+01  d E =-.260961E+01
 BRION: g(F)=  0.750E-55 g(S)=  0.000E+00
 reached required accuracy - stopping structural energy minimisation
 writing wavefunctions
 writing wavefunctions
 writing wavefunctions
Note: The following floating-point exceptions are signalling: IEEE_UNDERFLOW_FLAG IEEE_DENORMAL
Note: The following floating-point exceptions are signalling: IEEE_UNDERFLOW_FLAG IEEE_DENORMAL
Note: The following floating-point exceptions are signalling: IEEE_UNDERFLOW_FLAG IEEE_DENORMAL
Note: The following floating-point exceptions are signalling: IEEE_UNDERFLOW_FLAG IEEE_DENORMAL
 running on    1 total cores
 distrk:  each k-point on    1 cores,    1 groups
 distr:  one band on    1 cores,    1 groups
 running on    1 total cores
 distrk:  each k-point on    1 cores,    1 groups
 distr:  one band on    1 cores,    1 groups
 running on    1 total cores
 running on    1 total cores
 distrk:  each k-point on    1 cores,    1 groups
 distr:  one band on    1 cores,    1 groups
 distrk:  each k-point on    1 cores,    1 groups
 distr:  one band on    1 cores,    1 groups
 vasp.6.2.1 16May21 (build Dec 20 2021 17:02:34) complex                         
 vasp.6.2.1 16May21 (build Dec 20 2021 17:02:34) complex                         
 POSCAR found type information on POSCAR Na
 POSCAR found :  1 types and       2 ions
 scaLAPACK will be used
 vasp.6.2.1 16May21 (build Dec 20 2021 17:02:34) complex                         
 POSCAR found type information on POSCAR Na
 POSCAR found :  1 types and       2 ions
 scaLAPACK will be used
 LDA part: xc-table for Pade appr. of Perdew
 vasp.6.2.1 16May21 (build Dec 20 2021 17:02:34) complex                         
 LDA part: xc-table for Pade appr. of Perdew
 POSCAR found type information on POSCAR Na
 POSCAR found :  1 types and       2 ions
 scaLAPACK will be used
 found WAVECAR, reading the header
  number of k-points has changed, file:    56 present:    84
  trying to continue reading WAVECAR, but it might fail
 POSCAR found type information on POSCAR Na
 POSCAR found :  1 types and       2 ions
 scaLAPACK will be used
 LDA part: xc-table for Pade appr. of Perdew
 LDA part: xc-table for Pade appr. of Perdew
 found WAVECAR, reading the header
  number of k-points has changed, file:    56 present:    84
  trying to continue reading WAVECAR, but it might fail
 found WAVECAR, reading the header
  number of k-points has changed, file:    56 present:    84
  trying to continue reading WAVECAR, but it might fail
 POSCAR, INCAR and KPOINTS ok, starting setup
 found WAVECAR, reading the header
  number of k-points has changed, file:    56 present:    84
  trying to continue reading WAVECAR, but it might fail
 FFT: planning ...
 reading WAVECAR
 the WAVECAR file was read successfully
 initial charge from wavefunction
 entering main loop
       N       E                     dE             d eps       ncg     rms          rms(c)
DAV:   1    -0.226798760157E+01   -0.22680E+01   -0.22570E-01  1090   0.134E+00 POSCAR, INCAR and KPOINTS ok, starting setup
BRMIX: very serious problems
 the old and the new charge density differ
 old charge density:     1.12009 new    2.00000
    0.100E+00
 FFT: planning ...
 reading WAVECAR
 the WAVECAR file was read successfully
 initial charge from wavefunction
 entering main loop
DAV:   2    -0.260669780023E+01   -0.33871E+00   -0.88079E-02  1020   0.149E+00       N       E                     dE             d eps       ncg     rms          rms(c)
    0.137E-01
 POSCAR, INCAR and KPOINTS ok, starting setup
 FFT: planning ...
 reading WAVECAR
 the WAVECAR file was read successfully
 initial charge from wavefunction
 entering main loop
DAV:   3    -0.260513884790E+01    0.15590E-02   -0.58016E-04  1010   0.140E-01       N       E                     dE             d eps       ncg     rms          rms(c)
    0.633E-02
 POSCAR, INCAR and KPOINTS ok, starting setup
 FFT: planning ...
 reading WAVECAR
 the WAVECAR file was read successfully
DAV:   4    -0.260475272595E+01    0.38612E-03   -0.32844E-05   740   0.292E-02 initial charge from wavefunction
    0.741E-03
 entering main loop
DAV:   1    -0.226798760157E+01   -0.22680E+01   -0.22570E-01  1090   0.134E+00DAV:   5    -0.260474200820E+01    0.10718E-04   -0.12862E-06   460   0.759E-03
BRMIX: very serious problems
 the old and the new charge density differ
 old charge density:     1.12009 new    2.00000
    0.100E+00
DAV:   2    -0.260669780023E+01   -0.33871E+00   -0.88079E-02  1020   0.149E+00    0.137E-01
DAV:   1    -0.226798760157E+01   -0.22680E+01   -0.22570E-01  1090   0.134E+00BRMIX: very serious problems
 the old and the new charge density differ
 old charge density:     1.12009 new    2.00000
    0.100E+00
       N       E                     dE             d eps       ncg     rms          rms(c)
DAV:   2    -0.260669780023E+01   -0.33871E+00   -0.88079E-02  1020   0.149E+00   1 F= -.26047420E+01 E0= -.26044385E+01  d E =-.260474E+01
 BRION: g(F)=  0.269E-54 g(S)=  0.000E+00
 reached required accuracy - stopping structural energy minimisation
    0.137E-01
DAV:   3    -0.260513884790E+01    0.15590E-02   -0.58016E-04  1010   0.140E-01    0.633E-02
DAV:   3    -0.260513884790E+01    0.15590E-02   -0.58016E-04  1010   0.140E-01    0.633E-02
DAV:   4    -0.260475272595E+01    0.38612E-03   -0.32844E-05   740   0.292E-02    0.741E-03
DAV:   4    -0.260475272595E+01    0.38612E-03   -0.32844E-05   740   0.292E-02    0.741E-03
DAV:   5    -0.260474200820E+01    0.10718E-04   -0.12862E-06   460   0.759E-03
DAV:   1    -0.226798760157E+01   -0.22680E+01   -0.22570E-01  1090   0.134E+00BRMIX: very serious problems
 the old and the new charge density differ
 old charge density:     1.12009 new    2.00000
    0.100E+00
   1 F= -.26047420E+01 E0= -.26044385E+01  d E =-.260474E+01
 BRION: g(F)=  0.269E-54 g(S)=  0.000E+00
 reached required accuracy - stopping structural energy minimisation
DAV:   5    -0.260474200820E+01    0.10718E-04   -0.12862E-06   460   0.759E-03
DAV:   2    -0.260669780023E+01   -0.33871E+00   -0.88079E-02  1020   0.149E+00    0.137E-01
   1 F= -.26047420E+01 E0= -.26044385E+01  d E =-.260474E+01
 BRION: g(F)=  0.269E-54 g(S)=  0.000E+00
 reached required accuracy - stopping structural energy minimisation
DAV:   3    -0.260513884790E+01    0.15590E-02   -0.58016E-04  1010   0.140E-01    0.633E-02
DAV:   4    -0.260475272595E+01    0.38612E-03   -0.32844E-05   740   0.292E-02    0.741E-03
DAV:   5    -0.260474200820E+01    0.10718E-04   -0.12862E-06   460   0.759E-03
 writing wavefunctions
   1 F= -.26047420E+01 E0= -.26044385E+01  d E =-.260474E+01
 BRION: g(F)=  0.269E-54 g(S)=  0.000E+00
 reached required accuracy - stopping structural energy minimisation
 writing wavefunctions
 writing wavefunctions
 writing wavefunctions
Note: The following floating-point exceptions are signalling: IEEE_UNDERFLOW_FLAG IEEE_DENORMAL
Note: The following floating-point exceptions are signalling: IEEE_UNDERFLOW_FLAG IEEE_DENORMAL
Note: The following floating-point exceptions are signalling: IEEE_UNDERFLOW_FLAG IEEE_DENORMAL
Note: The following floating-point exceptions are signalling: IEEE_UNDERFLOW_FLAG IEEE_DENORMAL
 running on    1 total cores
 distrk:  each k-point on    1 cores,    1 groups
 distr:  one band on    1 cores,    1 groups
 running on    1 total cores
 distrk:  each k-point on    1 cores,    1 groups
 distr:  one band on    1 cores,    1 groups
 running on    1 total cores
 distrk:  each k-point on    1 cores,    1 groups
 distr:  one band on    1 cores,    1 groups
 running on    1 total cores
 distrk:  each k-point on    1 cores,    1 groups
 distr:  one band on    1 cores,    1 groups
 vasp.6.2.1 16May21 (build Dec 20 2021 17:02:34) complex                         
 vasp.6.2.1 16May21 (build Dec 20 2021 17:02:34) complex                         
 POSCAR found type information on POSCAR Na
 POSCAR found :  1 types and       2 ions
 scaLAPACK will be used
 vasp.6.2.1 16May21 (build Dec 20 2021 17:02:34) complex                         
 POSCAR found type information on POSCAR Na
 POSCAR found :  1 types and       2 ions
 scaLAPACK will be used
 LDA part: xc-table for Pade appr. of Perdew
 vasp.6.2.1 16May21 (build Dec 20 2021 17:02:34) complex                         
 LDA part: xc-table for Pade appr. of Perdew
 POSCAR found type information on POSCAR Na
 POSCAR found :  1 types and       2 ions
 scaLAPACK will be used
 POSCAR found type information on POSCAR Na
 POSCAR found :  1 types and       2 ions
 found WAVECAR, reading the header
  number of k-points has changed, file:    84 present:     4
  trying to continue reading WAVECAR, but it might fail
 WAVECAR: different cutoff or change in lattice found
 scaLAPACK will be used
 LDA part: xc-table for Pade appr. of Perdew
 LDA part: xc-table for Pade appr. of Perdew
 found WAVECAR, reading the header
  number of k-points has changed, file:    84 present:     4
  trying to continue reading WAVECAR, but it might fail
 WAVECAR: different cutoff or change in lattice found
 found WAVECAR, reading the header
  number of k-points has changed, file:    84 present:     4
  trying to continue reading WAVECAR, but it might fail
 WAVECAR: different cutoff or change in lattice found
 found WAVECAR, reading the header
  number of k-points has changed, file:    84 present:     4
  trying to continue reading WAVECAR, but it might fail
 WAVECAR: different cutoff or change in lattice found
 POSCAR, INCAR and KPOINTS ok, starting setup
 FFT: planning ...
 reading WAVECAR
 the WAVECAR file was read successfully
 initial charge from wavefunction
 entering main loop
       N       E                     dE             d eps       ncg     rms          rms(c)
 POSCAR, INCAR and KPOINTS ok, starting setup
 FFT: planning ...
 reading WAVECAR
 the WAVECAR file was read successfully
 initial charge from wavefunction
 entering main loop
       N       E                     dE             d eps       ncg     rms          rms(c)
DAV:   1    -0.274370378717E+01   -0.27437E+01   -0.33706E-01    40   0.294E+00    0.413E-02
DAV:   2    -0.274382689858E+01   -0.12311E-03   -0.16047E-03    40   0.283E-01    0.271E-02
DAV:   3    -0.274378604518E+01    0.40853E-04   -0.28261E-05    35   0.306E-02
   1 F= -.27437860E+01 E0= -.27449316E+01  d E =-.274379E+01
 BRION: g(F)=  0.449E-54 g(S)=  0.000E+00
 reached required accuracy - stopping structural energy minimisation
DAV:   1    -0.274370378717E+01   -0.27437E+01   -0.33706E-01    40   0.294E+00    0.413E-02
DAV:   2    -0.274382689858E+01   -0.12311E-03   -0.16047E-03    40   0.283E-01    0.271E-02
DAV:   3    -0.274378604518E+01    0.40853E-04   -0.28261E-05    35   0.306E-02
   1 F= -.27437860E+01 E0= -.27449316E+01  d E =-.274379E+01
 BRION: g(F)=  0.449E-54 g(S)=  0.000E+00
 reached required accuracy - stopping structural energy minimisation
 POSCAR, INCAR and KPOINTS ok, starting setup
 FFT: planning ...
 reading WAVECAR
 the WAVECAR file was read successfully
 initial charge from wavefunction
 entering main loop
       N       E                     dE             d eps       ncg     rms          rms(c)
 POSCAR, INCAR and KPOINTS ok, starting setup
 FFT: planning ...
 reading WAVECAR
 the WAVECAR file was read successfully
 initial charge from wavefunction
 entering main loop
DAV:   1    -0.274370378717E+01   -0.27437E+01   -0.33706E-01    40   0.294E+00    0.413E-02
DAV:   2    -0.274382689858E+01   -0.12311E-03   -0.16047E-03    40   0.283E-01    0.271E-02
DAV:   3    -0.274378604518E+01    0.40853E-04   -0.28261E-05    35   0.306E-02
   1 F= -.27437860E+01 E0= -.27449316E+01  d E =-.274379E+01
 BRION: g(F)=  0.449E-54 g(S)=  0.000E+00
 reached required accuracy - stopping structural energy minimisation
       N       E                     dE             d eps       ncg     rms          rms(c)
DAV:   1    -0.274370378717E+01   -0.27437E+01   -0.33706E-01    40   0.294E+00    0.413E-02
DAV:   2    -0.274382689858E+01   -0.12311E-03   -0.16047E-03    40   0.283E-01    0.271E-02
DAV:   3    -0.274378604518E+01    0.40853E-04   -0.28261E-05    35   0.306E-02
   1 F= -.27437860E+01 E0= -.27449316E+01  d E =-.274379E+01
[...]
 the old and the new charge density differ
 old charge density:     0.99570 new    2.00000
    0.114E+00
DAV:   3    -0.261273658717E+01    0.89474E-03   -0.11753E-03   715   0.191E-01    0.115E-01
DAV:   1    -0.216620678073E+01   -0.21662E+01   -0.34880E-01   715   0.178E+00BRMIX: very serious problems
 the old and the new charge density differ
 old charge density:     0.99570 new    2.00000
DAV:   2    -0.261363132251E+01   -0.44742E+00   -0.11412E-01   635   0.197E+00    0.114E+00
    0.144E-01
DAV:   1    -0.216620678073E+01   -0.21662E+01   -0.34880E-01   715   0.178E+00BRMIX: very serious problems
 the old and the new charge density differ
 old charge density:     0.99570 new    2.00000
    0.114E+00
DAV:   4    -0.261122691958E+01    0.15097E-02   -0.14597E-04   620   0.891E-02    0.115E-02
DAV:   2    -0.261363132251E+01   -0.44742E+00   -0.11412E-01   635   0.197E+00    0.144E-01
DAV:   3    -0.261273658717E+01    0.89474E-03   -0.11753E-03   715   0.191E-01    0.115E-01
DAV:   5    -0.261122230572E+01    0.46139E-05   -0.92918E-07   315   0.593E-03
DAV:   2    -0.261363132251E+01   -0.44742E+00   -0.11412E-01   635   0.197E+00    0.144E-01
DAV:   3    -0.261273658717E+01    0.89474E-03   -0.11753E-03   715   0.191E-01    0.115E-01
DAV:   4    -0.261122691958E+01    0.15097E-02   -0.14597E-04   620   0.891E-02   1 F= -.26112223E+01 E0= -.26120706E+01  d E =-.261122E+01
 curvature:   0.00 expect dE= 0.000E+00 dE for cont linesearch  0.000E+00
 trial: gam= 0.00000 g(F)=  0.550E-55 g(S)=  0.358E-02 ort = 0.000E+00 (trialstep = 0.100E+01)
 search vector abs. value=  0.358E-02
    0.115E-02
DAV:   3    -0.261273658717E+01    0.89474E-03   -0.11753E-03   715   0.191E-01    0.115E-01
DAV:   5    -0.261122230572E+01    0.46139E-05   -0.92918E-07   315   0.593E-03
DAV:   4    -0.261122691958E+01    0.15097E-02   -0.14597E-04   620   0.891E-02    0.115E-02
DAV:   4    -0.261122691958E+01    0.15097E-02   -0.14597E-04   620   0.891E-02    0.115E-02
   1 F= -.26112223E+01 E0= -.26120706E+01  d E =-.261122E+01
 curvature:   0.00 expect dE= 0.000E+00 dE for cont linesearch  0.000E+00
 trial: gam= 0.00000 g(F)=  0.227E-54 g(S)=  0.358E-02 ort = 0.000E+00 (trialstep = 0.100E+01)
 search vector abs. value=  0.358E-02
DAV:   5    -0.261122230572E+01    0.46139E-05   -0.92918E-07   315   0.593E-03
DAV:   5    -0.261122230572E+01    0.46139E-05   -0.92918E-07   315   0.593E-03
   1 F= -.26112223E+01 E0= -.26120706E+01  d E =-.261122E+01
 curvature:   0.00 expect dE= 0.000E+00 dE for cont linesearch  0.000E+00
 trial: gam= 0.00000 g(F)=  0.122E-53 g(S)=  0.358E-02 ort = 0.000E+00 (trialstep = 0.100E+01)
 search vector abs. value=  0.358E-02
   1 F= -.26112223E+01 E0= -.26120706E+01  d E =-.261122E+01
 curvature:   0.00 expect dE= 0.000E+00 dE for cont linesearch  0.000E+00
 trial: gam= 0.00000 g(F)=  0.240E-54 g(S)=  0.358E-02 ort = 0.000E+00 (trialstep = 0.100E+01)
 search vector abs. value=  0.358E-02
 bond charge predicted
       N       E                     dE             d eps       ncg     rms          rms(c)
 bond charge predicted
DAV:   1    -0.261434776484E+01   -0.31208E-02   -0.22898E-03   630   0.256E-01    0.954E-03
       N       E                     dE             d eps       ncg     rms          rms(c)
DAV:   2    -0.261434986777E+01   -0.21029E-05   -0.21638E-05   345   0.327E-02
DAV:   1    -0.261434776484E+01   -0.31208E-02   -0.22898E-03   630   0.256E-01    0.954E-03
   2 F= -.26143499E+01 E0= -.26151894E+01  d E =-.312756E-02
 ZBRENT: can't locate minimum, use default step
 trial-energy change:   -0.003128  1 .order   -0.003151   -0.003585   -0.002718
 step:   4.0000(harm=  4.1344)  dis= 0.00000  next Energy=    -2.618632 (dE=-0.741E-02)
DAV:   2    -0.261434986777E+01   -0.21029E-05   -0.21638E-05   345   0.327E-02
 bond charge predicted
   2 F= -.26143499E+01 E0= -.26151894E+01  d E =-.312756E-02
 ZBRENT: can't locate minimum, use default step
 trial-energy change:   -0.003128  1 .order   -0.003151   -0.003585   -0.002718
 step:   4.0000(harm=  4.1344)  dis= 0.00000  next Energy=    -2.618632 (dE=-0.741E-02)
 bond charge predicted
 bond charge predicted
       N       E                     dE             d eps       ncg     rms          rms(c)
 bond charge predicted
DAV:   1    -0.261434776484E+01   -0.31208E-02   -0.22898E-03   630   0.256E-01       N       E                     dE             d eps       ncg     rms          rms(c)
    0.954E-03
       N       E                     dE             d eps       ncg     rms          rms(c)
       N       E                     dE             d eps       ncg     rms          rms(c)
DAV:   2    -0.261434986777E+01   -0.21029E-05   -0.21638E-05   345   0.327E-02
DAV:   1    -0.261841699177E+01   -0.40692E-02   -0.22303E-02   630   0.820E-01    0.283E-02
DAV:   1    -0.261434776484E+01   -0.31208E-02   -0.22898E-03   630   0.256E-01DAV:   1    -0.261841699188E+01   -0.40692E-02   -0.22303E-02   630   0.820E-01    0.954E-03
    0.283E-02
   2 F= -.26143499E+01 E0= -.26151894E+01  d E =-.312756E-02
 ZBRENT: can't locate minimum, use default step
 trial-energy change:   -0.003128  1 .order   -0.003151   -0.003585   -0.002718
 step:   4.0000(harm=  4.1344)  dis= 0.00000  next Energy=    -2.618632 (dE=-0.741E-02)
DAV:   2    -0.261434986777E+01   -0.21029E-05   -0.21638E-05   345   0.327E-02
DAV:   2    -0.261843887843E+01   -0.21887E-04   -0.25553E-04   645   0.105E-01
DAV:   2    -0.261843887843E+01   -0.21887E-04   -0.25553E-04   645   0.105E-01
 bond charge predicted
   2 F= -.26143499E+01 E0= -.26151894E+01  d E =-.312756E-02
 ZBRENT: can't locate minimum, use default step
 trial-energy change:   -0.003128  1 .order   -0.003151   -0.003585   -0.002718
 step:   4.0000(harm=  4.1344)  dis= 0.00000  next Energy=    -2.618632 (dE=-0.741E-02)
   3 F= -.26184389E+01 E0= -.26192498E+01  d E =-.721657E-02
 curvature:  -2.06 expect dE=-0.161E-07 dE for cont linesearch -0.161E-07
 trial: gam=-0.00147 g(F)=  0.500E-53 g(S)=  0.778E-08 ort = 0.528E-05 (trialstep = 0.160E+01)
 search vector abs. value=  0.100E-09
 reached required accuracy - stopping structural energy minimisation
   3 F= -.26184389E+01 E0= -.26192498E+01  d E =-.721657E-02
 curvature:  -2.06 expect dE=-0.161E-07 dE for cont linesearch -0.161E-07
 trial: gam=-0.00147 g(F)=  0.160E-53 g(S)=  0.778E-08 ort = 0.528E-05 (trialstep = 0.160E+01)
 search vector abs. value=  0.100E-09
 reached required accuracy - stopping structural energy minimisation
       N       E                     dE             d eps       ncg     rms          rms(c)
DAV:   1    -0.261841699188E+01   -0.40692E-02   -0.22303E-02   630   0.820E-01    0.283E-02
 writing wavefunctions
 writing wavefunctions
 bond charge predicted
DAV:   2    -0.261843887843E+01   -0.21887E-04   -0.25553E-04   645   0.105E-01
       N       E                     dE             d eps       ncg     rms          rms(c)
   3 F= -.26184389E+01 E0= -.26192498E+01  d E =-.721657E-02
 curvature:  -2.06 expect dE=-0.161E-07 dE for cont linesearch -0.161E-07
 trial: gam=-0.00147 g(F)=  0.303E-53 g(S)=  0.778E-08 ort = 0.528E-05 (trialstep = 0.160E+01)
 search vector abs. value=  0.100E-09
 reached required accuracy - stopping structural energy minimisation
 writing wavefunctions
DAV:   1    -0.261841699188E+01   -0.40692E-02   -0.22303E-02   630   0.820E-01    0.283E-02
DAV:   2    -0.261843887843E+01   -0.21887E-04   -0.25553E-04   645   0.105E-01
   3 F= -.26184389E+01 E0= -.26192498E+01  d E =-.721657E-02
 curvature:  -2.06 expect dE=-0.161E-07 dE for cont linesearch -0.161E-07
 trial: gam=-0.00147 g(F)=  0.292E-53 g(S)=  0.778E-08 ort = 0.528E-05 (trialstep = 0.160E+01)
 search vector abs. value=  0.100E-09
 reached required accuracy - stopping structural energy minimisation
 writing wavefunctions
Note: The following floating-point exceptions are signalling: IEEE_UNDERFLOW_FLAG IEEE_DENORMAL
Note: The following floating-point exceptions are signalling: IEEE_UNDERFLOW_FLAG IEEE_DENORMAL
Note: The following floating-point exceptions are signalling: IEEE_UNDERFLOW_FLAG IEEE_DENORMAL
Note: The following floating-point exceptions are signalling: IEEE_UNDERFLOW_FLAG IEEE_DENORMAL
 running on    1 total cores
 running on    1 total cores
 running on    1 total cores
 distrk:  each k-point on    1 cores,    1 groups
 distrk:  each k-point on    1 cores,    1 groups
 distr:  one band on    1 cores,    1 groups
 distrk:  each k-point on    1 cores,    1 groups
 distr:  one band on    1 cores,    1 groups
 distr:  one band on    1 cores,    1 groups
 running on    1 total cores
 distrk:  each k-point on    1 cores,    1 groups
 distr:  one band on    1 cores,    1 groups
 vasp.6.2.1 16May21 (build Dec 20 2021 17:02:34) complex                         
 vasp.6.2.1 16May21 (build Dec 20 2021 17:02:34) complex                         
 vasp.6.2.1 16May21 (build Dec 20 2021 17:02:34) complex                         
 POSCAR found type information on POSCAR Na
 POSCAR found :  1 types and       2 ions
 scaLAPACK will be used
 vasp.6.2.1 16May21 (build Dec 20 2021 17:02:34) complex                         
 POSCAR found type information on POSCAR Na
 POSCAR found :  1 types and       2 ions
 scaLAPACK will be used
 LDA part: xc-table for Pade appr. of Perdew
 POSCAR found type information on POSCAR Na
 POSCAR found :  1 types and       2 ions
 scaLAPACK will be used
 LDA part: xc-table for Pade appr. of Perdew
 POSCAR found type information on POSCAR Na
 POSCAR found :  1 types and       2 ions
 scaLAPACK will be used
 LDA part: xc-table for Pade appr. of Perdew
 LDA part: xc-table for Pade appr. of Perdew
 found WAVECAR, reading the header
  number of k-points has changed, file:    56 present:    84
  trying to continue reading WAVECAR, but it might fail
 found WAVECAR, reading the header
  number of k-points has changed, file:    56 present:    84
  trying to continue reading WAVECAR, but it might fail
 found WAVECAR, reading the header
  number of k-points has changed, file:    56 present:    84
  trying to continue reading WAVECAR, but it might fail
 found WAVECAR, reading the header
  number of k-points has changed, file:    56 present:    84
  trying to continue reading WAVECAR, but it might fail
 POSCAR, INCAR and KPOINTS ok, starting setup
 FFT: planning ...
 reading WAVECAR
 the WAVECAR file was read successfully
 initial charge from wavefunction
 POSCAR, INCAR and KPOINTS ok, starting setup
 FFT: planning ...
 entering main loop
 reading WAVECAR
 the WAVECAR file was read successfully
 initial charge from wavefunction
 POSCAR, INCAR and KPOINTS ok, starting setup
       N       E                     dE             d eps       ncg     rms          rms(c)
 FFT: planning ...
 entering main loop
 reading WAVECAR
 the WAVECAR file was read successfully
 initial charge from wavefunction
       N       E                     dE             d eps       ncg     rms          rms(c)
 entering main loop
 POSCAR, INCAR and KPOINTS ok, starting setup
 FFT: planning ...
 reading WAVECAR
 the WAVECAR file was read successfully
       N       E                     dE             d eps       ncg     rms          rms(c)
 initial charge from wavefunction
 entering main loop
       N       E                     dE             d eps       ncg     rms          rms(c)
DAV:   1    -0.227636539050E+01   -0.22764E+01   -0.30801E-01  1085   0.178E+00BRMIX: very serious problems
 the old and the new charge density differ
 old charge density:     1.12001 new    2.00000
    0.100E+00
DAV:   1    -0.227636539050E+01   -0.22764E+01   -0.30801E-01  1085   0.178E+00BRMIX: very serious problems
 the old and the new charge density differ
 old charge density:     1.12001 new    2.00000
    0.100E+00
DAV:   1    -0.227636539050E+01   -0.22764E+01   -0.30801E-01  1085   0.178E+00BRMIX: very serious problems
 the old and the new charge density differ
 old charge density:     1.12001 new    2.00000
    0.100E+00
DAV:   1    -0.227636539050E+01   -0.22764E+01   -0.30801E-01  1085   0.178E+00BRMIX: very serious problems
 the old and the new charge density differ
 old charge density:     1.12001 new    2.00000
    0.100E+00
DAV:   2    -0.260818359318E+01   -0.33182E+00   -0.93892E-02   985   0.176E+00    0.127E-01
DAV:   2    -0.260818359318E+01   -0.33182E+00   -0.93892E-02   985   0.176E+00    0.127E-01
DAV:   2    -0.260818359318E+01   -0.33182E+00   -0.93892E-02   985   0.176E+00    0.127E-01
DAV:   2    -0.260818359318E+01   -0.33182E+00   -0.93892E-02   985   0.176E+00    0.127E-01
DAV:   3    -0.260704177873E+01    0.11418E-02   -0.77305E-04  1075   0.164E-01    0.803E-02
DAV:   3    -0.260704177873E+01    0.11418E-02   -0.77305E-04  1075   0.164E-01    0.803E-02
DAV:   3    -0.260704177872E+01    0.11418E-02   -0.77305E-04  1075   0.164E-01    0.803E-02
DAV:   3    -0.260704177872E+01    0.11418E-02   -0.77305E-04  1075   0.164E-01DAV:   4    -0.260634644114E+01    0.69534E-03   -0.82778E-05   875   0.656E-02    0.803E-02
    0.694E-03
DAV:   4    -0.260634644114E+01    0.69534E-03   -0.82778E-05   875   0.656E-02    0.694E-03
DAV:   4    -0.260634644114E+01    0.69534E-03   -0.82778E-05   875   0.656E-02DAV:   5    -0.260633510613E+01    0.11335E-04   -0.17534E-06   470   0.909E-03
    0.694E-03
DAV:   4    -0.260634644114E+01    0.69534E-03   -0.82778E-05   875   0.656E-02    0.694E-03
DAV:   5    -0.260633510613E+01    0.11335E-04   -0.17534E-06   470   0.909E-03
DAV:   5    -0.260633510613E+01    0.11335E-04   -0.17534E-06   470   0.909E-03
   1 F= -.26063351E+01 E0= -.26060319E+01  d E =-.260634E+01
 curvature:   0.00 expect dE= 0.000E+00 dE for cont linesearch  0.000E+00
 trial: gam= 0.00000 g(F)=  0.244E-54 g(S)=  0.339E-02 ort = 0.000E+00 (trialstep = 0.100E+01)
 search vector abs. value=  0.339E-02
DAV:   5    -0.260633510613E+01    0.11335E-04   -0.17534E-06   470   0.909E-03
   1 F= -.26063351E+01 E0= -.26060319E+01  d E =-.260634E+01
 curvature:   0.00 expect dE= 0.000E+00 dE for cont linesearch  0.000E+00
 trial: gam= 0.00000 g(F)=  0.381E-54 g(S)=  0.339E-02 ort = 0.000E+00 (trialstep = 0.100E+01)
 search vector abs. value=  0.339E-02
   1 F= -.26063351E+01 E0= -.26060319E+01  d E =-.260634E+01
 curvature:   0.00 expect dE= 0.000E+00 dE for cont linesearch  0.000E+00
 trial: gam= 0.00000 g(F)=  0.269E-56 g(S)=  0.339E-02 ort = 0.000E+00 (trialstep = 0.100E+01)
 search vector abs. value=  0.339E-02
   1 F= -.26063351E+01 E0= -.26060319E+01  d E =-.260634E+01
 curvature:   0.00 expect dE= 0.000E+00 dE for cont linesearch  0.000E+00
 trial: gam= 0.00000 g(F)=  0.149E-54 g(S)=  0.339E-02 ort = 0.000E+00 (trialstep = 0.100E+01)
 search vector abs. value=  0.339E-02
 bond charge predicted
       N       E                     dE             d eps       ncg     rms          rms(c)
 bond charge predicted
DAV:   1    -0.260931831656E+01   -0.29719E-02   -0.22133E-03   945   0.253E-01    0.919E-03
       N       E                     dE             d eps       ncg     rms          rms(c)
DAV:   2    -0.260932036804E+01   -0.20515E-05   -0.19865E-05   520   0.310E-02
 bond charge predicted
 bond charge predicted
DAV:   1    -0.260931831656E+01   -0.29719E-02   -0.22133E-03   945   0.253E-01    0.919E-03
   2 F= -.26093204E+01 E0= -.26090210E+01  d E =-.298526E-02
 ZBRENT: can't locate minimum, use default step
 trial-energy change:   -0.002985  1 .order   -0.002990   -0.003391   -0.002589
 step:   4.0000(harm=  4.2291)  dis= 0.00000  next Energy=    -2.613505 (dE=-0.717E-02)
       N       E                     dE             d eps       ncg     rms          rms(c)
       N       E                     dE             d eps       ncg     rms          rms(c)
 bond charge predicted
DAV:   2    -0.260932036804E+01   -0.20515E-05   -0.19865E-05   520   0.310E-02
       N       E                     dE             d eps       ncg     rms          rms(c)
   2 F= -.26093204E+01 E0= -.26090210E+01  d E =-.298526E-02
 ZBRENT: can't locate minimum, use default step
 trial-energy change:   -0.002985  1 .order   -0.002990   -0.003391   -0.002589
 step:   4.0000(harm=  4.2291)  dis= 0.00000  next Energy=    -2.613505 (dE=-0.717E-02)
DAV:   1    -0.260931831655E+01   -0.29719E-02   -0.22133E-03   945   0.253E-01DAV:   1    -0.260931831655E+01   -0.29719E-02   -0.22133E-03   945   0.253E-01    0.919E-03
DAV:   1    -0.261323038313E+01   -0.39121E-02   -0.21071E-02   945   0.796E-01    0.275E-02
    0.919E-03
 bond charge predicted
DAV:   2    -0.260932036804E+01   -0.20515E-05   -0.19865E-05   520   0.310E-02
       N       E                     dE             d eps       ncg     rms          rms(c)
DAV:   2    -0.260932036804E+01   -0.20515E-05   -0.19865E-05   520   0.310E-02
DAV:   2    -0.261325110400E+01   -0.20721E-04   -0.24135E-04   995   0.102E-01
   2 F= -.26093204E+01 E0= -.26090210E+01  d E =-.298526E-02
 ZBRENT: can't locate minimum, use default step
 trial-energy change:   -0.002985  1 .order   -0.002990   -0.003391   -0.002589
 step:   4.0000(harm=  4.2291)  dis= 0.00000  next Energy=    -2.613505 (dE=-0.717E-02)
DAV:   1    -0.261323038313E+01   -0.39121E-02   -0.21071E-02   945   0.796E-01    0.275E-02
 bond charge predicted
   2 F= -.26093204E+01 E0= -.26090210E+01  d E =-.298526E-02
 ZBRENT: can't locate minimum, use default step
 trial-energy change:   -0.002985  1 .order   -0.002990   -0.003391   -0.002589
 step:   4.0000(harm=  4.2291)  dis= 0.00000  next Energy=    -2.613505 (dE=-0.717E-02)
   3 F= -.26132511E+01 E0= -.26129633E+01  d E =-.691600E-02
 curvature:  -2.10 expect dE=-0.564E-06 dE for cont linesearch -0.564E-06
 trial: gam=-0.00881 g(F)=  0.973E-54 g(S)=  0.268E-06 ort = 0.301E-04 (trialstep = 0.160E+01)
 search vector abs. value=  0.121E-09
 reached required accuracy - stopping structural energy minimisation
       N       E                     dE             d eps       ncg     rms          rms(c)
DAV:   2    -0.261325110400E+01   -0.20721E-04   -0.24135E-04   995   0.102E-01
 writing wavefunctions
 bond charge predicted
DAV:   1    -0.261323038314E+01   -0.39121E-02   -0.21071E-02   945   0.796E-01   3 F= -.26132511E+01 E0= -.26129633E+01  d E =-.691600E-02
 curvature:  -2.10 expect dE=-0.564E-06 dE for cont linesearch -0.564E-06
 trial: gam=-0.00881 g(F)=  0.860E-54 g(S)=  0.268E-06 ort = 0.301E-04 (trialstep = 0.160E+01)
 search vector abs. value=  0.121E-09
 reached required accuracy - stopping structural energy minimisation
    0.275E-02
       N       E                     dE             d eps       ncg     rms          rms(c)
 writing wavefunctions
DAV:   1    -0.261323038313E+01   -0.39121E-02   -0.21071E-02   945   0.796E-01DAV:   2    -0.261325110400E+01   -0.20721E-04   -0.24135E-04   995   0.102E-01
    0.275E-02
   3 F= -.26132511E+01 E0= -.26129633E+01  d E =-.691600E-02
 curvature:  -2.10 expect dE=-0.564E-06 dE for cont linesearch -0.564E-06
 trial: gam=-0.00881 g(F)=  0.236E-55 g(S)=  0.268E-06 ort = 0.301E-04 (trialstep = 0.160E+01)
 search vector abs. value=  0.121E-09
 reached required accuracy - stopping structural energy minimisation
DAV:   2    -0.261325110400E+01   -0.20721E-04   -0.24135E-04   995   0.102E-01
 writing wavefunctions
Note: The following floating-point exceptions are signalling: IEEE_UNDERFLOW_FLAG IEEE_DENORMAL
   3 F= -.26132511E+01 E0= -.26129633E+01  d E =-.691600E-02
 curvature:  -2.10 expect dE=-0.564E-06 dE for cont linesearch -0.564E-06
 trial: gam=-0.00881 g(F)=  0.906E-54 g(S)=  0.268E-06 ort = 0.301E-04 (trialstep = 0.160E+01)
 search vector abs. value=  0.121E-09
 reached required accuracy - stopping structural energy minimisation
Note: The following floating-point exceptions are signalling: IEEE_UNDERFLOW_FLAG IEEE_DENORMAL
 writing wavefunctions
Note: The following floating-point exceptions are signalling: IEEE_UNDERFLOW_FLAG IEEE_DENORMAL
Note: The following floating-point exceptions are signalling: IEEE_UNDERFLOW_FLAG IEEE_DENORMAL
