       N       E                     dE             d eps       ncg     rms          rms(c)
DAV:   1    -0.227636539050E+01   -0.22764E+01   -0.30801E-01  1085   0.178E+00    0.100E+00
DAV:   2    -0.260818359318E+01   -0.33182E+00   -0.93892E-02   985   0.176E+00    0.127E-01
DAV:   3    -0.260704177872E+01    0.11418E-02   -0.77305E-04  1075   0.164E-01    0.803E-02
DAV:   4    -0.260634644114E+01    0.69534E-03   -0.82778E-05   875   0.656E-02    0.694E-03
DAV:   5    -0.260633510613E+01    0.11335E-04   -0.17534E-06   470   0.909E-03
   1 F= -.26063351E+01 E0= -.26060319E+01  d E =-.260634E+01
       N       E                     dE             d eps       ncg     rms          rms(c)
DAV:   1    -0.260931831655E+01   -0.29719E-02   -0.22133E-03   945   0.253E-01    0.919E-03
DAV:   2    -0.260932036804E+01   -0.20515E-05   -0.19865E-05   520   0.310E-02
   2 F= -.26093204E+01 E0= -.26090210E+01  d E =-.298526E-02
       N       E                     dE             d eps       ncg     rms          rms(c)
DAV:   1    -0.261323038313E+01   -0.39121E-02   -0.21071E-02   945   0.796E-01    0.275E-02
DAV:   2    -0.261325110400E+01   -0.20721E-04   -0.24135E-04   995   0.102E-01
   3 F= -.26132511E+01 E0= -.26129633E+01  d E =-.691600E-02
