       N       E                     dE             d eps       ncg     rms          rms(c)
DAV:   1    -0.227059828057E+01   -0.22706E+01   -0.22964E-01  1090   0.144E+00    0.100E+00
DAV:   2    -0.260826844186E+01   -0.33767E+00   -0.89372E-02   990   0.172E+00    0.135E-01
DAV:   3    -0.260662622896E+01    0.16422E-02   -0.81011E-04  1095   0.172E-01    0.552E-02
DAV:   4    -0.260634562491E+01    0.28060E-03   -0.38300E-05   760   0.455E-02    0.645E-03
DAV:   5    -0.260633298769E+01    0.12637E-04   -0.21166E-06   465   0.104E-02
   1 F= -.26063330E+01 E0= -.26060298E+01  d E =-.260633E+01
