       N       E                     dE             d eps       ncg     rms          rms(c)
DAV:   1    -0.227056214894E+01   -0.22706E+01   -0.22965E-01  1090   0.144E+00    0.100E+00
DAV:   2    -0.260826788746E+01   -0.33771E+00   -0.89890E-02   990   0.173E+00    0.135E-01
DAV:   3    -0.260662925635E+01    0.16386E-02   -0.80935E-04  1095   0.172E-01    0.555E-02
DAV:   4    -0.260634558125E+01    0.28368E-03   -0.38582E-05   765   0.457E-02    0.644E-03
DAV:   5    -0.260633298829E+01    0.12593E-04   -0.21166E-06   465   0.105E-02
   1 F= -.26063330E+01 E0= -.26060298E+01  d E =-.260633E+01
