 vasp.6.2.1 16May21 (build Dec 20 2021 17:02:34) complex                         
 executed on             LinuxGNU date 2025.09.22  12:52:33
 running on    1 total cores
 distrk:  each k-point on    1 cores,    1 groups
 distr:  one band on NCORE=   1 cores,    1 groups


--------------------------------------------------------------------------------------------------------


 INCAR:
   ENCUT = 500
   GGA = PE
   IBRION = 2
   IBRION = 1
   NSW = 100
   LVTOT = .TRUE.
   LVHAR = .TRUE.

 POTCAR:    PAW_PBE Na 08Apr2002                  
 POTCAR:    PAW_PBE Na 08Apr2002                  
   VRHFIN =Na: s1p0                                                                                 
   LEXCH  = PE                                                                                      
   EATOM  =     5.1581 eV,    0.3791 Ry                                                             
                                                                                                    
   TITEL  = PAW_PBE Na 08Apr2002                                                                    
   LULTRA =        F    use ultrasoft PP ?                                                          
   IUNSCR =        1    unscreen: 0-lin 1-nonlin 2-no                                               
   RPACOR =    1.800    partial core radius                                                         
   POMASS =   22.990; ZVAL   =    1.000    mass and valenz                                          
   RCORE  =    2.200    outmost cutoff radius                                                       
   RWIGS  =    3.320; RWIGS  =    1.757    wigner-seitz radius (au A)                               
   ENMAX  =  101.968; ENMIN  =   76.476 eV                                                          
   ICORE  =        2    local potential                                                             
   LCOR   =        T    correct aug charges                                                         
   LPAW   =        T    paw PP                                                                      
   EAUG   =  250.695                                                                                
   DEXC   =    0.000                                                                                
   RMAX   =    2.245    core radius for proj-oper                                                   
   RAUG   =    1.300    factor for augmentation sphere                                              
   RDEP   =    2.259    radius for radial grids                                                     
   RDEPT  =    2.115    core radius for aug-charge                                                  
                                                                                                    
   Atomic configuration                                                                             
    6 entries                                                                                       
     n  l   j            E        occ.                                                              
     1  0  0.50     -1033.6933   2.0000                                                             
     2  0  0.50       -56.7526   2.0000                                                             
     2  1  1.50       -28.6721   6.0000                                                             
     3  0  0.50        -2.7440   1.0000                                                             
     3  1  0.50        -1.3606   0.0000                                                             
     3  2  1.50        -1.3606   0.0000                                                             
   Description                                                                                      
     l       E           TYP  RCUT    TYP  RCUT                                                     
     0     -2.7439560     23  2.200                                                                 
     0     27.2116520     23  2.200                                                                 
     1     -1.3605826     23  2.200                                                                 
     2     -1.3605826     23  2.200                                                                 
  local pseudopotential read in
  partial core-charges read in
  partial kinetic energy density read in
  atomic valenz-charges read in
  non local Contribution for L=           0  read in
    real space projection operators read in
  non local Contribution for L=           0  read in
    real space projection operators read in
  non local Contribution for L=           1  read in
    real space projection operators read in
    PAW grid and wavefunctions read in

   number of l-projection  operators is LMAX  =           3
   number of lm-projection operators is LMMAX =           5

  PAW_PBE Na 08Apr2002                  :
 energy of atom  1       EATOM=   -5.1581
 kinetic energy error for atom=    0.0000 (will be added to EATOM!!)


 POSCAR: Na
  positions in cartesian coordinates
  No initial velocities read in
 exchange correlation table for  LEXCH =        8
   RHO(1)=    0.500       N(1)  =     2000
   RHO(2)=  100.500       N(2)  =     4000



--------------------------------------------------------------------------------------------------------


 ion  position               nearest neighbor table
   1  0.000  0.000  0.000-   2 3.71   2 3.71   2 3.71   2 3.71   2 3.71   2 3.71   2 3.71   2 3.71

   2  0.500  0.500  0.500-   1 3.71   1 3.71   1 3.71   1 3.71   1 3.71   1 3.71   1 3.71   1 3.71


  LATTYP: Found a simple cubic cell.
 ALAT       =     4.2820000648
  
  Lattice vectors:
  
 A1 = (   4.2820000648,   0.0000000000,   0.0000000000)
 A2 = (   0.0000000000,   4.2820000648,   0.0000000000)
 A3 = (   0.0000000000,   0.0000000000,   4.2820000648)


Analysis of symmetry for initial positions (statically):
=====================================================================
 Subroutine PRICEL returns following result:
 
  LATTYP: Found a body centered cubic cell.
 ALAT       =     4.2820000645
  
  Lattice vectors:
  
 A1 = (   2.1410000320,   2.1410000320,  -2.1410000328)
 A2 = (  -2.1410000320,   2.1410000328,   2.1410000328)
 A3 = (   2.1410000320,  -2.1410000328,   2.1410000320)
 
   2 primitive cells build up your supercell.
 

 Routine SETGRP: Setting up the symmetry group for a 
 simple cubic supercell.


 Subroutine GETGRP returns: Found 48 space group operations
 (whereof 48 operations were pure point group operations)
 out of a pool of 48 trial point group operations.


The static configuration has the point symmetry O_h .


Analysis of symmetry for dynamics (positions and initial velocities):
=====================================================================
 Subroutine PRICEL returns following result:
 
  LATTYP: Found a body centered cubic cell.
 ALAT       =     4.2820000645
  
  Lattice vectors:
  
 A1 = (   2.1410000320,   2.1410000320,  -2.1410000328)
 A2 = (  -2.1410000320,   2.1410000328,   2.1410000328)
 A3 = (   2.1410000320,  -2.1410000328,   2.1410000320)
 
   2 primitive cells build up your supercell.
 

 Routine SETGRP: Setting up the symmetry group for a 
 simple cubic supercell.


 Subroutine GETGRP returns: Found 48 space group operations
 (whereof 48 operations were pure point group operations)
 out of a pool of 48 trial point group operations.


The dynamic configuration has the point symmetry O_h .


 Subroutine INISYM returns: Found 48 space group operations
 (whereof 48 operations are pure point group operations),
 and found     2 'primitive' translations


----------------------------------------------------------------------------------------

                                     Primitive cell                                     

  volume of cell :      39.2564

  direct lattice vectors                    reciprocal lattice vectors
     2.141000032  2.141000032 -2.141000033     0.233535728  0.233535727 -0.000000000
    -2.141000032  2.141000033  2.141000033     0.000000000  0.233535727  0.233535727
     2.141000032 -2.141000033  2.141000032     0.233535728 -0.000000000  0.233535727

  length of vectors
     3.708320835  3.708320835  3.708320835     0.330269393  0.330269393  0.330269393

  position of ions in fractional coordinates (direct lattice)
     0.000000000  0.000000000  0.000000000

  ion indices of the primitive-cell ions
   primitive index   ion index
                 1           1

----------------------------------------------------------------------------------------



 KPOINTS: KPOINTS created by Atomic Simulation Env

Automatic generation of k-mesh.
 Grid dimensions read from file:
 generate k-points for:   13   13   13

 Generating k-lattice:

  Cartesian coordinates                     Fractional coordinates (reciprocal lattice)
     0.017964287  0.000000000  0.000000000     0.076923077  0.000000000  0.000000000
     0.000000000  0.017964287  0.000000000     0.000000000  0.076923077  0.000000000
     0.000000000  0.000000000  0.017964287     0.000000000  0.000000000  0.076923077

  Length of vectors
     0.017964287  0.017964287  0.017964287

  Shift w.r.t. Gamma in fractional coordinates (k-lattice)
     0.000000000  0.000000000  0.000000000

 
 Subroutine IBZKPT returns following result:
 ===========================================
 
 Found     84 irreducible k-points:
 
 Following reciprocal coordinates:
            Coordinates               Weight
  0.000000  0.000000  0.000000      1.000000
  0.076923  0.000000  0.000000      6.000000
  0.153846  0.000000  0.000000      6.000000
  0.230769  0.000000  0.000000      6.000000
  0.307692  0.000000  0.000000      6.000000
  0.384615  0.000000  0.000000      6.000000
  0.461538  0.000000  0.000000      6.000000
  0.076923  0.076923  0.000000     12.000000
  0.153846  0.076923  0.000000     24.000000
  0.230769  0.076923  0.000000     24.000000
  0.307692  0.076923  0.000000     24.000000
  0.384615  0.076923  0.000000     24.000000
  0.461538  0.076923  0.000000     24.000000
  0.153846  0.153846  0.000000     12.000000
  0.230769  0.153846  0.000000     24.000000
  0.307692  0.153846  0.000000     24.000000
  0.384615  0.153846  0.000000     24.000000
  0.461538  0.153846  0.000000     24.000000
  0.230769  0.230769  0.000000     12.000000
  0.307692  0.230769  0.000000     24.000000
  0.384615  0.230769  0.000000     24.000000
  0.461538  0.230769  0.000000     24.000000
  0.307692  0.307692  0.000000     12.000000
  0.384615  0.307692  0.000000     24.000000
  0.461538  0.307692  0.000000     24.000000
  0.384615  0.384615  0.000000     12.000000
  0.461538  0.384615  0.000000     24.000000
  0.461538  0.461538  0.000000     12.000000
  0.076923  0.076923  0.076923      8.000000
  0.153846  0.076923  0.076923     24.000000
  0.230769  0.076923  0.076923     24.000000
  0.307692  0.076923  0.076923     24.000000
  0.384615  0.076923  0.076923     24.000000
  0.461538  0.076923  0.076923     24.000000
  0.153846  0.153846  0.076923     24.000000
  0.230769  0.153846  0.076923     48.000000
  0.307692  0.153846  0.076923     48.000000
  0.384615  0.153846  0.076923     48.000000
  0.461538  0.153846  0.076923     48.000000
  0.230769  0.230769  0.076923     24.000000
  0.307692  0.230769  0.076923     48.000000
  0.384615  0.230769  0.076923     48.000000
  0.461538  0.230769  0.076923     48.000000
  0.307692  0.307692  0.076923     24.000000
  0.384615  0.307692  0.076923     48.000000
  0.461538  0.307692  0.076923     48.000000
  0.384615  0.384615  0.076923     24.000000
  0.461538  0.384615  0.076923     48.000000
  0.461538  0.461538  0.076923     24.000000
  0.153846  0.153846  0.153846      8.000000
  0.230769  0.153846  0.153846     24.000000
  0.307692  0.153846  0.153846     24.000000
  0.384615  0.153846  0.153846     24.000000
  0.461538  0.153846  0.153846     24.000000
  0.230769  0.230769  0.153846     24.000000
  0.307692  0.230769  0.153846     48.000000
  0.384615  0.230769  0.153846     48.000000
  0.461538  0.230769  0.153846     48.000000
  0.307692  0.307692  0.153846     24.000000
  0.384615  0.307692  0.153846     48.000000
  0.461538  0.307692  0.153846     48.000000
  0.384615  0.384615  0.153846     24.000000
  0.461538  0.384615  0.153846     48.000000
  0.461538  0.461538  0.153846     24.000000
  0.230769  0.230769  0.230769      8.000000
  0.307692  0.230769  0.230769     24.000000
  0.384615  0.230769  0.230769     24.000000
  0.461538  0.230769  0.230769     24.000000
  0.307692  0.307692  0.230769     24.000000
  0.384615  0.307692  0.230769     48.000000
  0.461538  0.307692  0.230769     48.000000
  0.384615  0.384615  0.230769     24.000000
  0.461538  0.384615  0.230769     48.000000
  0.461538  0.461538  0.230769     24.000000
  0.307692  0.307692  0.307692      8.000000
  0.384615  0.307692  0.307692     24.000000
  0.461538  0.307692  0.307692     24.000000
  0.384615  0.384615  0.307692     24.000000
  0.461538  0.384615  0.307692     48.000000
  0.461538  0.461538  0.307692     24.000000
  0.384615  0.384615  0.384615      8.000000
  0.461538  0.384615  0.384615     24.000000
  0.461538  0.461538  0.384615     24.000000
  0.461538  0.461538  0.461538      8.000000
 
 Following cartesian coordinates:
            Coordinates               Weight
  0.000000  0.000000  0.000000      1.000000
  0.017964  0.000000  0.000000      6.000000
  0.035929  0.000000  0.000000      6.000000
  0.053893  0.000000  0.000000      6.000000
  0.071857  0.000000  0.000000      6.000000
  0.089821  0.000000  0.000000      6.000000
  0.107786  0.000000  0.000000      6.000000
  0.017964  0.017964  0.000000     12.000000
  0.035929  0.017964  0.000000     24.000000
  0.053893  0.017964  0.000000     24.000000
  0.071857  0.017964  0.000000     24.000000
  0.089821  0.017964  0.000000     24.000000
  0.107786  0.017964  0.000000     24.000000
  0.035929  0.035929  0.000000     12.000000
  0.053893  0.035929  0.000000     24.000000
  0.071857  0.035929  0.000000     24.000000
  0.089821  0.035929  0.000000     24.000000
  0.107786  0.035929  0.000000     24.000000
  0.053893  0.053893  0.000000     12.000000
  0.071857  0.053893  0.000000     24.000000
  0.089821  0.053893  0.000000     24.000000
  0.107786  0.053893  0.000000     24.000000
  0.071857  0.071857  0.000000     12.000000
  0.089821  0.071857  0.000000     24.000000
  0.107786  0.071857  0.000000     24.000000
  0.089821  0.089821  0.000000     12.000000
  0.107786  0.089821  0.000000     24.000000
  0.107786  0.107786  0.000000     12.000000
  0.017964  0.017964  0.017964      8.000000
  0.035929  0.017964  0.017964     24.000000
  0.053893  0.017964  0.017964     24.000000
  0.071857  0.017964  0.017964     24.000000
  0.089821  0.017964  0.017964     24.000000
  0.107786  0.017964  0.017964     24.000000
  0.035929  0.035929  0.017964     24.000000
  0.053893  0.035929  0.017964     48.000000
  0.071857  0.035929  0.017964     48.000000
  0.089821  0.035929  0.017964     48.000000
  0.107786  0.035929  0.017964     48.000000
  0.053893  0.053893  0.017964     24.000000
  0.071857  0.053893  0.017964     48.000000
  0.089821  0.053893  0.017964     48.000000
  0.107786  0.053893  0.017964     48.000000
  0.071857  0.071857  0.017964     24.000000
  0.089821  0.071857  0.017964     48.000000
  0.107786  0.071857  0.017964     48.000000
  0.089821  0.089821  0.017964     24.000000
  0.107786  0.089821  0.017964     48.000000
  0.107786  0.107786  0.017964     24.000000
  0.035929  0.035929  0.035929      8.000000
  0.053893  0.035929  0.035929     24.000000
  0.071857  0.035929  0.035929     24.000000
  0.089821  0.035929  0.035929     24.000000
  0.107786  0.035929  0.035929     24.000000
  0.053893  0.053893  0.035929     24.000000
  0.071857  0.053893  0.035929     48.000000
  0.089821  0.053893  0.035929     48.000000
  0.107786  0.053893  0.035929     48.000000
  0.071857  0.071857  0.035929     24.000000
  0.089821  0.071857  0.035929     48.000000
  0.107786  0.071857  0.035929     48.000000
  0.089821  0.089821  0.035929     24.000000
  0.107786  0.089821  0.035929     48.000000
  0.107786  0.107786  0.035929     24.000000
  0.053893  0.053893  0.053893      8.000000
  0.071857  0.053893  0.053893     24.000000
  0.089821  0.053893  0.053893     24.000000
  0.107786  0.053893  0.053893     24.000000
  0.071857  0.071857  0.053893     24.000000
  0.089821  0.071857  0.053893     48.000000
  0.107786  0.071857  0.053893     48.000000
  0.089821  0.089821  0.053893     24.000000
  0.107786  0.089821  0.053893     48.000000
  0.107786  0.107786  0.053893     24.000000
  0.071857  0.071857  0.071857      8.000000
  0.089821  0.071857  0.071857     24.000000
  0.107786  0.071857  0.071857     24.000000
  0.089821  0.089821  0.071857     24.000000
  0.107786  0.089821  0.071857     48.000000
  0.107786  0.107786  0.071857     24.000000
  0.089821  0.089821  0.089821      8.000000
  0.107786  0.089821  0.089821     24.000000
  0.107786  0.107786  0.089821     24.000000
  0.107786  0.107786  0.107786      8.000000
 


--------------------------------------------------------------------------------------------------------




 Dimension of arrays:
   k-points           NKPTS =     84   k-points in BZ     NKDIM =     84   number of bands    NBANDS=      5
   number of dos      NEDOS =    301   number of ions     NIONS =      2
   non local maximal  LDIM  =      3   non local SUM 2l+1 LMDIM =      5
   total plane-waves  NPLWV =  13824
   max r-space proj   IRMAX =      1   max aug-charges    IRDMAX=   8771
   dimension x,y,z NGX =    24 NGY =   24 NGZ =   24
   dimension x,y,z NGXF=    48 NGYF=   48 NGZF=   48
   support grid    NGXF=    48 NGYF=   48 NGZF=   48
   ions per type =               2
   NGX,Y,Z   is equivalent  to a cutoff of   9.32,  9.32,  9.32 a.u.
   NGXF,Y,Z  is equivalent  to a cutoff of  18.64, 18.64, 18.64 a.u.

 SYSTEM =  unknown system                          
 POSCAR =  Na                                      

 Startparameter for this run:
   NWRITE =      2    write-flag & timer
   PREC   = normal    normal or accurate (medium, high low for compatibility)
   ISTART =      1    job   : 0-new  1-cont  2-samecut
   ICHARG =      0    charge: 1-file 2-atom 10-const
   ISPIN  =      1    spin polarized calculation?
   LNONCOLLINEAR =      F non collinear calculations
   LSORBIT =      F    spin-orbit coupling
   INIWAV =      1    electr: 0-lowe 1-rand  2-diag
   LASPH  =      F    aspherical Exc in radial PAW
 Electronic Relaxation 1
   ENCUT  =  500.0 eV  36.75 Ry    6.06 a.u.   7.81  7.81  7.81*2*pi/ulx,y,z
   ENINI  =  500.0     initial cutoff
   ENAUG  =  250.7 eV  augmentation charge cutoff
   NELM   =     60;   NELMIN=  2; NELMDL=  0     # of ELM steps 
   EDIFF  = 0.1E-03   stopping-criterion for ELM
   LREAL  =      F    real-space projection
   NLSPLINE    = F    spline interpolate recip. space projectors
   LCOMPAT=      F    compatible to vasp.4.4
   GGA_COMPAT  = T    GGA compatible to vasp.4.4-vasp.4.6
   LMAXPAW     = -100 max onsite density
   LMAXMIX     =    2 max onsite mixed and CHGCAR
   VOSKOWN=      0    Vosko Wilk Nusair interpolation
   ROPT   =    0.00000
 Ionic relaxation
   EDIFFG = 0.1E-02   stopping-criterion for IOM
   NSW    =    100    number of steps for IOM
   NBLOCK =      1;   KBLOCK =    100    inner block; outer block 
   IBRION =      2    ionic relax: 0-MD 1-quasi-New 2-CG
   NFREE  =      1    steps in history (QN), initial steepest desc. (CG)
   ISIF   =      2    stress and relaxation
   IWAVPR =     11    prediction:  0-non 1-charg 2-wave 3-comb
   ISYM   =      2    0-nonsym 1-usesym 2-fastsym
   LCORR  =      T    Harris-Foulkes like correction to forces

   POTIM  = 0.5000    time-step for ionic-motion
   TEIN   =    0.0    initial temperature
   TEBEG  =    0.0;   TEEND  =   0.0 temperature during run
   SMASS  =  -3.00    Nose mass-parameter (am)
   estimated Nose-frequenzy (Omega)   =  0.10E-29 period in steps = 0.13E+47 mass=  -0.419E-27a.u.
   SCALEE = 1.0000    scale energy and forces
   NPACO  =    256;   APACO  = 16.0  distance and # of slots for P.C.
   PSTRESS=    0.0 pullay stress

  Mass of Ions in am
   POMASS =  22.99
  Ionic Valenz
   ZVAL   =   1.00
  Atomic Wigner-Seitz radii
   RWIGS  =  -1.00
  virtual crystal weights 
   VCA    =   1.00
   NELECT =       2.0000    total number of electrons
   NUPDOWN=      -1.0000    fix difference up-down

 DOS related values:
   EMIN   =  10.00;   EMAX   =-10.00  energy-range for DOS
   EFERMI =   0.00
   ISMEAR =     1;   SIGMA  =   0.20  broadening in eV -4-tet -1-fermi 0-gaus

 Electronic relaxation 2 (details)
   IALGO  =     38    algorithm
   LDIAG  =      T    sub-space diagonalisation (order eigenvalues)
   LSUBROT=      F    optimize rotation matrix (better conditioning)
   TURBO    =      0    0=normal 1=particle mesh
   IRESTART =      0    0=no restart 2=restart with 2 vectors
   NREBOOT  =      0    no. of reboots
   NMIN     =      0    reboot dimension
   EREF     =   0.00    reference energy to select bands
   IMIX   =      4    mixing-type and parameters
     AMIX     =   0.40;   BMIX     =  1.00
     AMIX_MAG =   1.60;   BMIX_MAG =  1.00
     AMIN     =   0.10
     WC   =   100.;   INIMIX=   1;  MIXPRE=   1;  MAXMIX= -45

 Intra band minimization:
   WEIMIN = 0.0010     energy-eigenvalue tresh-hold
   EBREAK =  0.50E-05  absolut break condition
   DEPER  =   0.30     relativ break condition  

   TIME   =   0.40     timestep for ELM

  volume/ion in A,a.u.               =      39.26       264.91
  Fermi-wavevector in a.u.,A,eV,Ry     =   0.481694  0.910270  3.156951  0.232029
  Thomas-Fermi vector in A             =   1.479925

 Write flags
   LWAVE        =      T    write WAVECAR
   LDOWNSAMPLE  =      F    k-point downsampling of WAVECAR
   LCHARG       =      T    write CHGCAR
   LVTOT        =      F    write LOCPOT, total local potential
   LVHAR        =      T    write LOCPOT, Hartree potential only
   LELF         =      F    write electronic localiz. function (ELF)
   LORBIT       =      0    0 simple, 1 ext, 2 COOP (PROOUT), +10 PAW based schemes


 Dipole corrections
   LMONO  =      F    monopole corrections only (constant potential shift)
   LDIPOL =      F    correct potential (dipole corrections)
   IDIPOL =      0    1-x, 2-y, 3-z, 4-all directions 
   EPSILON=  1.0000000 bulk dielectric constant

 Exchange correlation treatment:
   GGA     =    PE    GGA type
   LEXCH   =     8    internal setting for exchange type
   VOSKOWN=      0    Vosko Wilk Nusair interpolation
   LHFCALC =     F    Hartree Fock is set to
   LHFONE  =     F    Hartree Fock one center treatment
   AEXX    =    0.0000 exact exchange contribution

 Linear response parameters
   LEPSILON=     F    determine dielectric tensor
   LRPA    =     F    only Hartree local field effects (RPA)
   LNABLA  =     F    use nabla operator in PAW spheres
   LVEL    =     F    velocity operator in full k-point grid
   LINTERFAST=   F  fast interpolation
   KINTER  =     0    interpolate to denser k-point grid
   CSHIFT  =0.1000    complex shift for real part using Kramers Kronig
   OMEGAMAX=  -1.0    maximum frequency
   DEG_THRESHOLD= 0.2000000E-02 threshold for treating states as degnerate
   RTIME   =   -0.100 relaxation time in fs
  (WPLASMAI=    0.000 imaginary part of plasma frequency in eV, 0.658/RTIME)
   DFIELD  = 0.0000000 0.0000000 0.0000000 field for delta impulse in time

 Orbital magnetization related:
   ORBITALMAG=     F  switch on orbital magnetization
   LCHIMAG   =     F  perturbation theory with respect to B field
   DQ        =  0.001000  dq finite difference perturbation B field
   LLRAUG    =     F  two centre corrections for induced B field



--------------------------------------------------------------------------------------------------------


 conjugate gradient relaxation of ions
 charge density and potential will be updated during run
 non-spin polarized calculation
 Variant of blocked Davidson
 Davidson routine will perform the subspace rotation
 perform sub-space diagonalisation
    after iterative eigenvector-optimisation
 modified Broyden-mixing scheme, WC =      100.0
 initial mixing is a Kerker type mixing with AMIX =  0.4000 and BMIX =      1.0000
 Hartree-type preconditioning will be used
 using additional bands            4
 reciprocal scheme for non local part
 use partial core corrections
 calculate Harris-corrections to forces   (improved forces if not selfconsistent)
 use gradient corrections 
 use of overlap-Matrix (Vanderbilt PP)
 Methfessel and Paxton  Order N= 1 SIGMA  =   0.20


--------------------------------------------------------------------------------------------------------


  energy-cutoff  :      500.00
  volume of cell :       78.51
      direct lattice vectors                 reciprocal lattice vectors
     4.282000065  0.000000000  0.000000000     0.233535727  0.000000000  0.000000000
     0.000000000  4.282000065  0.000000000     0.000000000  0.233535727  0.000000000
     0.000000000  0.000000000  4.282000065     0.000000000  0.000000000  0.233535727

  length of vectors
     4.282000065  4.282000065  4.282000065     0.233535727  0.233535727  0.233535727



 old parameters found on file WAVECAR:
  energy-cutoff  :      500.00
  volume of cell :       78.51
      direct lattice vectors                 reciprocal lattice vectors
     4.282000065  0.000000000  0.000000000     0.233535727  0.000000000  0.000000000
     0.000000000  4.282000065  0.000000000     0.000000000  0.233535727  0.000000000
     0.000000000  0.000000000  4.282000065     0.000000000  0.000000000  0.233535727

  length of vectors


 k-points in units of 2pi/SCALE and weight: KPOINTS created by Atomic Simulation Env
   0.00000000  0.00000000  0.00000000       0.000
   0.01796429  0.00000000  0.00000000       0.003
   0.03592857  0.00000000  0.00000000       0.003
   0.05389286  0.00000000  0.00000000       0.003
   0.07185715  0.00000000  0.00000000       0.003
   0.08982143  0.00000000  0.00000000       0.003
   0.10778572  0.00000000  0.00000000       0.003
   0.01796429  0.01796429  0.00000000       0.005
   0.03592857  0.01796429  0.00000000       0.011
   0.05389286  0.01796429  0.00000000       0.011
   0.07185715  0.01796429  0.00000000       0.011
   0.08982143  0.01796429  0.00000000       0.011
   0.10778572  0.01796429  0.00000000       0.011
   0.03592857  0.03592857  0.00000000       0.005
   0.05389286  0.03592857  0.00000000       0.011
   0.07185715  0.03592857  0.00000000       0.011
   0.08982143  0.03592857  0.00000000       0.011
   0.10778572  0.03592857  0.00000000       0.011
   0.05389286  0.05389286  0.00000000       0.005
   0.07185715  0.05389286  0.00000000       0.011
   0.08982143  0.05389286  0.00000000       0.011
   0.10778572  0.05389286  0.00000000       0.011
   0.07185715  0.07185715  0.00000000       0.005
   0.08982143  0.07185715  0.00000000       0.011
   0.10778572  0.07185715  0.00000000       0.011
   0.08982143  0.08982143  0.00000000       0.005
   0.10778572  0.08982143  0.00000000       0.011
   0.10778572  0.10778572  0.00000000       0.005
   0.01796429  0.01796429  0.01796429       0.004
   0.03592857  0.01796429  0.01796429       0.011
   0.05389286  0.01796429  0.01796429       0.011
   0.07185715  0.01796429  0.01796429       0.011
   0.08982143  0.01796429  0.01796429       0.011
   0.10778572  0.01796429  0.01796429       0.011
   0.03592857  0.03592857  0.01796429       0.011
   0.05389286  0.03592857  0.01796429       0.022
   0.07185715  0.03592857  0.01796429       0.022
   0.08982143  0.03592857  0.01796429       0.022
   0.10778572  0.03592857  0.01796429       0.022
   0.05389286  0.05389286  0.01796429       0.011
   0.07185715  0.05389286  0.01796429       0.022
   0.08982143  0.05389286  0.01796429       0.022
   0.10778572  0.05389286  0.01796429       0.022
   0.07185715  0.07185715  0.01796429       0.011
   0.08982143  0.07185715  0.01796429       0.022
   0.10778572  0.07185715  0.01796429       0.022
   0.08982143  0.08982143  0.01796429       0.011
   0.10778572  0.08982143  0.01796429       0.022
   0.10778572  0.10778572  0.01796429       0.011
   0.03592857  0.03592857  0.03592857       0.004
   0.05389286  0.03592857  0.03592857       0.011
   0.07185715  0.03592857  0.03592857       0.011
   0.08982143  0.03592857  0.03592857       0.011
   0.10778572  0.03592857  0.03592857       0.011
   0.05389286  0.05389286  0.03592857       0.011
   0.07185715  0.05389286  0.03592857       0.022
   0.08982143  0.05389286  0.03592857       0.022
   0.10778572  0.05389286  0.03592857       0.022
   0.07185715  0.07185715  0.03592857       0.011
   0.08982143  0.07185715  0.03592857       0.022
   0.10778572  0.07185715  0.03592857       0.022
   0.08982143  0.08982143  0.03592857       0.011
   0.10778572  0.08982143  0.03592857       0.022
   0.10778572  0.10778572  0.03592857       0.011
   0.05389286  0.05389286  0.05389286       0.004
   0.07185715  0.05389286  0.05389286       0.011
   0.08982143  0.05389286  0.05389286       0.011
   0.10778572  0.05389286  0.05389286       0.011
   0.07185715  0.07185715  0.05389286       0.011
   0.08982143  0.07185715  0.05389286       0.022
   0.10778572  0.07185715  0.05389286       0.022
   0.08982143  0.08982143  0.05389286       0.011
   0.10778572  0.08982143  0.05389286       0.022
   0.10778572  0.10778572  0.05389286       0.011
   0.07185715  0.07185715  0.07185715       0.004
   0.08982143  0.07185715  0.07185715       0.011
   0.10778572  0.07185715  0.07185715       0.011
   0.08982143  0.08982143  0.07185715       0.011
   0.10778572  0.08982143  0.07185715       0.022
   0.10778572  0.10778572  0.07185715       0.011
   0.08982143  0.08982143  0.08982143       0.004
   0.10778572  0.08982143  0.08982143       0.011
   0.10778572  0.10778572  0.08982143       0.011
   0.10778572  0.10778572  0.10778572       0.004

 k-points in reciprocal lattice and weights: KPOINTS created by Atomic Simulation Env
   0.00000000  0.00000000  0.00000000       0.000
   0.07692308  0.00000000  0.00000000       0.003
   0.15384615  0.00000000  0.00000000       0.003
   0.23076923  0.00000000  0.00000000       0.003
   0.30769231  0.00000000  0.00000000       0.003
   0.38461538  0.00000000  0.00000000       0.003
   0.46153846  0.00000000  0.00000000       0.003
   0.07692308  0.07692308  0.00000000       0.005
   0.15384615  0.07692308  0.00000000       0.011
   0.23076923  0.07692308  0.00000000       0.011
   0.30769231  0.07692308  0.00000000       0.011
   0.38461538  0.07692308  0.00000000       0.011
   0.46153846  0.07692308  0.00000000       0.011
   0.15384615  0.15384615  0.00000000       0.005
   0.23076923  0.15384615  0.00000000       0.011
   0.30769231  0.15384615  0.00000000       0.011
   0.38461538  0.15384615  0.00000000       0.011
   0.46153846  0.15384615  0.00000000       0.011
   0.23076923  0.23076923  0.00000000       0.005
   0.30769231  0.23076923  0.00000000       0.011
   0.38461538  0.23076923  0.00000000       0.011
   0.46153846  0.23076923  0.00000000       0.011
   0.30769231  0.30769231  0.00000000       0.005
   0.38461538  0.30769231  0.00000000       0.011
   0.46153846  0.30769231  0.00000000       0.011
   0.38461538  0.38461538  0.00000000       0.005
   0.46153846  0.38461538  0.00000000       0.011
   0.46153846  0.46153846  0.00000000       0.005
   0.07692308  0.07692308  0.07692308       0.004
   0.15384615  0.07692308  0.07692308       0.011
   0.23076923  0.07692308  0.07692308       0.011
   0.30769231  0.07692308  0.07692308       0.011
   0.38461538  0.07692308  0.07692308       0.011
   0.46153846  0.07692308  0.07692308       0.011
   0.15384615  0.15384615  0.07692308       0.011
   0.23076923  0.15384615  0.07692308       0.022
   0.30769231  0.15384615  0.07692308       0.022
   0.38461538  0.15384615  0.07692308       0.022
   0.46153846  0.15384615  0.07692308       0.022
   0.23076923  0.23076923  0.07692308       0.011
   0.30769231  0.23076923  0.07692308       0.022
   0.38461538  0.23076923  0.07692308       0.022
   0.46153846  0.23076923  0.07692308       0.022
   0.30769231  0.30769231  0.07692308       0.011
   0.38461538  0.30769231  0.07692308       0.022
   0.46153846  0.30769231  0.07692308       0.022
   0.38461538  0.38461538  0.07692308       0.011
   0.46153846  0.38461538  0.07692308       0.022
   0.46153846  0.46153846  0.07692308       0.011
   0.15384615  0.15384615  0.15384615       0.004
   0.23076923  0.15384615  0.15384615       0.011
   0.30769231  0.15384615  0.15384615       0.011
   0.38461538  0.15384615  0.15384615       0.011
   0.46153846  0.15384615  0.15384615       0.011
   0.23076923  0.23076923  0.15384615       0.011
   0.30769231  0.23076923  0.15384615       0.022
   0.38461538  0.23076923  0.15384615       0.022
   0.46153846  0.23076923  0.15384615       0.022
   0.30769231  0.30769231  0.15384615       0.011
   0.38461538  0.30769231  0.15384615       0.022
   0.46153846  0.30769231  0.15384615       0.022
   0.38461538  0.38461538  0.15384615       0.011
   0.46153846  0.38461538  0.15384615       0.022
   0.46153846  0.46153846  0.15384615       0.011
   0.23076923  0.23076923  0.23076923       0.004
   0.30769231  0.23076923  0.23076923       0.011
   0.38461538  0.23076923  0.23076923       0.011
   0.46153846  0.23076923  0.23076923       0.011
   0.30769231  0.30769231  0.23076923       0.011
   0.38461538  0.30769231  0.23076923       0.022
   0.46153846  0.30769231  0.23076923       0.022
   0.38461538  0.38461538  0.23076923       0.011
   0.46153846  0.38461538  0.23076923       0.022
   0.46153846  0.46153846  0.23076923       0.011
   0.30769231  0.30769231  0.30769231       0.004
   0.38461538  0.30769231  0.30769231       0.011
   0.46153846  0.30769231  0.30769231       0.011
   0.38461538  0.38461538  0.30769231       0.011
   0.46153846  0.38461538  0.30769231       0.022
   0.46153846  0.46153846  0.30769231       0.011
   0.38461538  0.38461538  0.38461538       0.004
   0.46153846  0.38461538  0.38461538       0.011
   0.46153846  0.46153846  0.38461538       0.011
   0.46153846  0.46153846  0.46153846       0.004

 position of ions in fractional coordinates (direct lattice) 
   0.00000000  0.00000000  0.00000000
   0.50000000  0.50000000  0.50000000

 position of ions in cartesian coordinates  (Angst):
   0.00000000  0.00000000  0.00000000
   2.14100003  2.14100003  2.14100003



--------------------------------------------------------------------------------------------------------


 k-point   1 :   0.0000 0.0000 0.0000  plane waves:    1935
 k-point   2 :   0.0769 0.0000 0.0000  plane waves:    1975
 k-point   3 :   0.1538 0.0000 0.0000  plane waves:    1983
 k-point   4 :   0.2308 0.0000 0.0000  plane waves:    1980
 k-point   5 :   0.3077 0.0000 0.0000  plane waves:    1992
 k-point   6 :   0.3846 0.0000 0.0000  plane waves:    1996
 k-point   7 :   0.4615 0.0000 0.0000  plane waves:    2000
 k-point   8 :   0.0769 0.0769 0.0000  plane waves:    1987
 k-point   9 :   0.1538 0.0769 0.0000  plane waves:    1985
 k-point  10 :   0.2308 0.0769 0.0000  plane waves:    1989
 k-point  11 :   0.3077 0.0769 0.0000  plane waves:    1988
 k-point  12 :   0.3846 0.0769 0.0000  plane waves:    1995
 k-point  13 :   0.4615 0.0769 0.0000  plane waves:    1999
 k-point  14 :   0.1538 0.1538 0.0000  plane waves:    1995
 k-point  15 :   0.2308 0.1538 0.0000  plane waves:    1991
 k-point  16 :   0.3077 0.1538 0.0000  plane waves:    1993
 k-point  17 :   0.3846 0.1538 0.0000  plane waves:    1993
 k-point  18 :   0.4615 0.1538 0.0000  plane waves:    1991
 k-point  19 :   0.2308 0.2308 0.0000  plane waves:    1979
 k-point  20 :   0.3077 0.2308 0.0000  plane waves:    1991
 k-point  21 :   0.3846 0.2308 0.0000  plane waves:    1999
 k-point  22 :   0.4615 0.2308 0.0000  plane waves:    1997
 k-point  23 :   0.3077 0.3077 0.0000  plane waves:    2003
 k-point  24 :   0.3846 0.3077 0.0000  plane waves:    2003
 k-point  25 :   0.4615 0.3077 0.0000  plane waves:    2001
 k-point  26 :   0.3846 0.3846 0.0000  plane waves:    2005
 k-point  27 :   0.4615 0.3846 0.0000  plane waves:    1994
 k-point  28 :   0.4615 0.4615 0.0000  plane waves:    1991
 k-point  29 :   0.0769 0.0769 0.0769  plane waves:    1992
 k-point  30 :   0.1538 0.0769 0.0769  plane waves:    1992
 k-point  31 :   0.2308 0.0769 0.0769  plane waves:    1985
 k-point  32 :   0.3077 0.0769 0.0769  plane waves:    1978
 k-point  33 :   0.3846 0.0769 0.0769  plane waves:    1989
 k-point  34 :   0.4615 0.0769 0.0769  plane waves:    1995
 k-point  35 :   0.1538 0.1538 0.0769  plane waves:    1983
 k-point  36 :   0.2308 0.1538 0.0769  plane waves:    1979
 k-point  37 :   0.3077 0.1538 0.0769  plane waves:    1990
 k-point  38 :   0.3846 0.1538 0.0769  plane waves:    1993
 k-point  39 :   0.4615 0.1538 0.0769  plane waves:    2000
 k-point  40 :   0.2308 0.2308 0.0769  plane waves:    1987
 k-point  41 :   0.3077 0.2308 0.0769  plane waves:    1993
 k-point  42 :   0.3846 0.2308 0.0769  plane waves:    1991
 k-point  43 :   0.4615 0.2308 0.0769  plane waves:    1998
 k-point  44 :   0.3077 0.3077 0.0769  plane waves:    1999
 k-point  45 :   0.3846 0.3077 0.0769  plane waves:    2001
 k-point  46 :   0.4615 0.3077 0.0769  plane waves:    1997
 k-point  47 :   0.3846 0.3846 0.0769  plane waves:    1996
 k-point  48 :   0.4615 0.3846 0.0769  plane waves:    2003
 k-point  49 :   0.4615 0.4615 0.0769  plane waves:    2006
 k-point  50 :   0.1538 0.1538 0.1538  plane waves:    1974
 k-point  51 :   0.2308 0.1538 0.1538  plane waves:    1983
 k-point  52 :   0.3077 0.1538 0.1538  plane waves:    1987
 k-point  53 :   0.3846 0.1538 0.1538  plane waves:    1990
 k-point  54 :   0.4615 0.1538 0.1538  plane waves:    1980
 k-point  55 :   0.2308 0.2308 0.1538  plane waves:    1980
 k-point  56 :   0.3077 0.2308 0.1538  plane waves:    1990
 k-point  57 :   0.3846 0.2308 0.1538  plane waves:    1992
 k-point  58 :   0.4615 0.2308 0.1538  plane waves:    1999
 k-point  59 :   0.3077 0.3077 0.1538  plane waves:    1995
 k-point  60 :   0.3846 0.3077 0.1538  plane waves:    1998
 k-point  61 :   0.4615 0.3077 0.1538  plane waves:    2002
 k-point  62 :   0.3846 0.3846 0.1538  plane waves:    2004
 k-point  63 :   0.4615 0.3846 0.1538  plane waves:    2002
 k-point  64 :   0.4615 0.4615 0.1538  plane waves:    2008
 k-point  65 :   0.2308 0.2308 0.2308  plane waves:    1983
 k-point  66 :   0.3077 0.2308 0.2308  plane waves:    1994
 k-point  67 :   0.3846 0.2308 0.2308  plane waves:    1993
 k-point  68 :   0.4615 0.2308 0.2308  plane waves:    1999
 k-point  69 :   0.3077 0.3077 0.2308  plane waves:    1996
 k-point  70 :   0.3846 0.3077 0.2308  plane waves:    1995
 k-point  71 :   0.4615 0.3077 0.2308  plane waves:    1992
 k-point  72 :   0.3846 0.3846 0.2308  plane waves:    2000
 k-point  73 :   0.4615 0.3846 0.2308  plane waves:    1996
 k-point  74 :   0.4615 0.4615 0.2308  plane waves:    2012
 k-point  75 :   0.3077 0.3077 0.3077  plane waves:    1980
 k-point  76 :   0.3846 0.3077 0.3077  plane waves:    1984
 k-point  77 :   0.4615 0.3077 0.3077  plane waves:    2002
 k-point  78 :   0.3846 0.3846 0.3077  plane waves:    1990
 k-point  79 :   0.4615 0.3846 0.3077  plane waves:    1987
 k-point  80 :   0.4615 0.4615 0.3077  plane waves:    1988
 k-point  81 :   0.3846 0.3846 0.3846  plane waves:    1998
 k-point  82 :   0.4615 0.3846 0.3846  plane waves:    1983
 k-point  83 :   0.4615 0.4615 0.3846  plane waves:    1970
 k-point  84 :   0.4615 0.4615 0.4615  plane waves:    1968

 maximum and minimum number of plane-waves per node :      2012     1935

 maximum number of plane-waves:      2012
 maximum index in each direction: 
   IXMAX=    7   IYMAX=    7   IZMAX=    7
   IXMIN=   -8   IYMIN=   -8   IZMIN=   -8


 serial   3D FFT for wavefunctions
 parallel 3D FFT for charge:
    minimum data exchange during FFTs selected (reduces bandwidth)


 total amount of memory used by VASP MPI-rank0    60347. kBytes
=======================================================================

   base      :      30000. kBytes
   nonl-proj :       6824. kBytes
   fftplans  :       3916. kBytes
   grid      :       6018. kBytes
   one-center:          2. kBytes
   wavefun   :      13587. kBytes

     INWAV:  cpu time    0.0140: real time    0.0141
 Broyden mixing: mesh for mixing (old mesh)
   NGX = 15   NGY = 15   NGZ = 15
  (NGX  = 48   NGY  = 48   NGZ  = 48)
  gives a total of   3375 points

 charge density for first step will be calculated from the start-wavefunctions


--------------------------------------------------------------------------------------------------------


 Maximum index for augmentation-charges         8289 (set IRDMAX)


--------------------------------------------------------------------------------------------------------


 initial charge from wavefunction
 First call to EWALD:  gamma=   0.414
 Maximum number of real-space cells 3x 3x 3
 Maximum number of reciprocal cells 3x 3x 3

    FEWALD:  cpu time    0.0006: real time    0.0006


--------------------------------------- Iteration      1(   1)  ---------------------------------------


    POTLOK:  cpu time    0.0569: real time    0.3537
    SETDIJ:  cpu time    0.0031: real time    0.0031
     EDDAV:  cpu time    1.2693: real time    1.2751
       DOS:  cpu time    0.0019: real time    0.0019
    CHARGE:  cpu time    0.1004: real time    0.1008
    MIXING:  cpu time    0.0017: real time    0.0017
    --------------------------------------------
      LOOP:  cpu time    1.4333: real time    1.7363

 eigenvalue-minimisations  :  1090
 total energy-change (2. order) :-0.2270562E+01  (-0.2296476E-01)
 number of electron       2.0000000 magnetization 
 augmentation part        0.0130055 magnetization 

 Broyden mixing:
  rms(total) = 0.10041E+00    rms(broyden)= 0.14842E-01
  rms(prec ) = 0.40779E-01
  weight for this iteration     100.00
  WARNING: grid for Broyden might be to small

 Free energy of the ion-electron system (eV)
  ---------------------------------------------------
  alpha Z        PSCENC =        -0.93315053
  Ewald energy   TEWEN  =       -12.23825003
  -Hartree energ DENC   =        -0.00827595
  -exchange      EXHF   =         0.00000000
  -V(xc)+E(xc)   XCENC  =       -74.18993815
  PAW double counting   =        76.11055633       -1.08792080
  entropy T*S    EENTRO =        -0.00097462
  eigenvalues    EBANDS =        -0.23874698
  atomic energy  EATOM  =        10.31613858
  Solvation  Ediel_sol  =         0.00000000
  ---------------------------------------------------
  free energy    TOTEN  =        -2.27056215 eV

  energy without entropy =       -2.26958753  energy(sigma->0) =       -2.27023728


--------------------------------------------------------------------------------------------------------




--------------------------------------- Iteration      1(   2)  ---------------------------------------


    POTLOK:  cpu time    0.0538: real time    0.0539
    SETDIJ:  cpu time    0.0031: real time    0.0031
     EDDAV:  cpu time    1.4191: real time    1.4265
       DOS:  cpu time    0.0032: real time    0.0032
    CHARGE:  cpu time    0.1904: real time    0.1915
    MIXING:  cpu time    0.0029: real time    0.0029
    --------------------------------------------
      LOOP:  cpu time    1.6725: real time    1.6812

 eigenvalue-minimisations  :   990
 total energy-change (2. order) :-0.3377057E+00  (-0.8989002E-02)
 number of electron       2.0000000 magnetization 
 augmentation part        0.0137425 magnetization 

 Broyden mixing:
  rms(total) = 0.13545E-01    rms(broyden)= 0.13545E-01
  rms(prec ) = 0.38912E-01
  weight for this iteration     100.00

 eigenvalues of (default mixing * dielectric matrix)
  average eigenvalue GAMMA=   1.5072
  1.5072

 Free energy of the ion-electron system (eV)
  ---------------------------------------------------
  alpha Z        PSCENC =        -0.93315053
  Ewald energy   TEWEN  =       -12.23825003
  -Hartree energ DENC   =        -0.01199293
  -exchange      EXHF   =         0.00000000
  -V(xc)+E(xc)   XCENC  =       -73.10955625
  PAW double counting   =        76.74373088       -1.72470222
  entropy T*S    EENTRO =        -0.00090564
  eigenvalues    EBANDS =        -1.64957975
  atomic energy  EATOM  =        10.31613858
  Solvation  Ediel_sol  =         0.00000000
  ---------------------------------------------------
  free energy    TOTEN  =        -2.60826789 eV

  energy without entropy =       -2.60736225  energy(sigma->0) =       -2.60796601


--------------------------------------------------------------------------------------------------------




--------------------------------------- Iteration      1(   3)  ---------------------------------------


    POTLOK:  cpu time    0.0867: real time    0.0872
    SETDIJ:  cpu time    0.0049: real time    0.0049
     EDDAV:  cpu time    1.9443: real time    1.9572
       DOS:  cpu time    0.0031: real time    0.0032
    CHARGE:  cpu time    0.1912: real time    0.1923
    MIXING:  cpu time    0.0028: real time    0.0028
    --------------------------------------------
      LOOP:  cpu time    2.2330: real time    2.2477

 eigenvalue-minimisations  :  1095
 total energy-change (2. order) : 0.1638631E-02  (-0.8093527E-04)
 number of electron       2.0000000 magnetization 
 augmentation part        0.0137501 magnetization 

 Broyden mixing:
  rms(total) = 0.55515E-02    rms(broyden)= 0.55515E-02
  rms(prec ) = 0.16631E-01
  weight for this iteration     100.00

 eigenvalues of (default mixing * dielectric matrix)
  average eigenvalue GAMMA=   1.9423
  0.9975  2.8871

 Free energy of the ion-electron system (eV)
  ---------------------------------------------------
  alpha Z        PSCENC =        -0.93315053
  Ewald energy   TEWEN  =       -12.23825003
  -Hartree energ DENC   =        -0.01962805
  -exchange      EXHF   =         0.00000000
  -V(xc)+E(xc)   XCENC  =       -73.07616364
  PAW double counting   =        77.93848962       -2.92322284
  entropy T*S    EENTRO =        -0.00090895
  eigenvalues    EBANDS =        -1.66993341
  atomic energy  EATOM  =        10.31613858
  Solvation  Ediel_sol  =         0.00000000
  ---------------------------------------------------
  free energy    TOTEN  =        -2.60662926 eV

  energy without entropy =       -2.60572031  energy(sigma->0) =       -2.60632627


--------------------------------------------------------------------------------------------------------




--------------------------------------- Iteration      1(   4)  ---------------------------------------


    POTLOK:  cpu time    0.0860: real time    0.0867
    SETDIJ:  cpu time    0.0047: real time    0.0048
     EDDAV:  cpu time    1.4922: real time    1.5018
       DOS:  cpu time    0.0031: real time    0.0031
    CHARGE:  cpu time    0.1901: real time    0.1912
    MIXING:  cpu time    0.0036: real time    0.0036
    --------------------------------------------
      LOOP:  cpu time    1.7796: real time    1.7910

 eigenvalue-minimisations  :   765
 total energy-change (2. order) : 0.2836751E-03  (-0.3858243E-05)
 number of electron       2.0000000 magnetization 
 augmentation part        0.0137470 magnetization 

 Broyden mixing:
  rms(total) = 0.64429E-03    rms(broyden)= 0.64429E-03
  rms(prec ) = 0.95416E-03
  weight for this iteration     100.00

 eigenvalues of (default mixing * dielectric matrix)
  average eigenvalue GAMMA=   2.2131
  0.9969  2.8211  2.8211

 Free energy of the ion-electron system (eV)
  ---------------------------------------------------
  alpha Z        PSCENC =        -0.93315053
  Ewald energy   TEWEN  =       -12.23825003
  -Hartree energ DENC   =        -0.02630648
  -exchange      EXHF   =         0.00000000
  -V(xc)+E(xc)   XCENC  =       -73.05186360
  PAW double counting   =        78.82164518       -3.80893636
  entropy T*S    EENTRO =        -0.00090963
  eigenvalues    EBANDS =        -1.68471270
  atomic energy  EATOM  =        10.31613858
  Solvation  Ediel_sol  =         0.00000000
  ---------------------------------------------------
  free energy    TOTEN  =        -2.60634558 eV

  energy without entropy =       -2.60543595  energy(sigma->0) =       -2.60604237


--------------------------------------------------------------------------------------------------------




--------------------------------------- Iteration      1(   5)  ---------------------------------------


    POTLOK:  cpu time    0.0827: real time    0.0832
    SETDIJ:  cpu time    0.0044: real time    0.0045
     EDDAV:  cpu time    1.0884: real time    1.0948
       DOS:  cpu time    0.0032: real time    0.0032
    --------------------------------------------
      LOOP:  cpu time    1.1787: real time    1.1856

 eigenvalue-minimisations  :   465
 total energy-change (2. order) : 0.1259296E-04  (-0.2116593E-06)
 number of electron       2.0000000 magnetization 
 augmentation part        0.0137470 magnetization 

 Free energy of the ion-electron system (eV)
  ---------------------------------------------------
  alpha Z        PSCENC =        -0.93315053
  Ewald energy   TEWEN  =       -12.23825003
  -Hartree energ DENC   =        -0.02645539
  -exchange      EXHF   =         0.00000000
  -V(xc)+E(xc)   XCENC  =       -73.05149291
  PAW double counting   =        78.59052526       -3.57715536
  entropy T*S    EENTRO =        -0.00090960
  eigenvalues    EBANDS =        -1.68558300
  atomic energy  EATOM  =        10.31613858
  Solvation  Ediel_sol  =         0.00000000
  ---------------------------------------------------
  free energy    TOTEN  =        -2.60633299 eV

  energy without entropy =       -2.60542339  energy(sigma->0) =       -2.60602979


--------------------------------------------------------------------------------------------------------




 average (electrostatic) potential at core
  the test charge radii are     1.1212
  (the norm of the test charge is              1.0000)
       1 -44.1074       2 -44.1074



 E-fermi :   0.4149     XC(G=0):  -6.1212     alpha+bet : -4.6800

 Fermi energy:         0.4148551553

 k-point     1 :       0.0000    0.0000    0.0000
  band No.  band energies     occupation 
      1      -2.7548      2.00000
      2       4.8308     -0.00000
      3       4.8308     -0.00000
      4       5.0979     -0.00000
      5       5.0979     -0.00000

 k-point     2 :       0.0769    0.0000    0.0000
  band No.  band energies     occupation 
      1      -2.7050      2.00000
      2       3.9704     -0.00000
      3       4.8792     -0.00000
      4       5.1399     -0.00000
      5       5.1399     -0.00000

 k-point     3 :       0.1538    0.0000    0.0000
  band No.  band energies     occupation 
      1      -2.5560      2.00000
      2       2.9843     -0.00000
      3       5.0243     -0.00000
      4       5.2661     -0.00000
      5       5.2661     -0.00000

 k-point     4 :       0.2308    0.0000    0.0000
  band No.  band energies     occupation 
      1      -2.3082      2.00000
      2       2.0399     -0.00000
      3       5.2662     -0.00000
      4       5.4767     -0.00000
      5       5.4767     -0.00000

 k-point     5 :       0.3077    0.0000    0.0000
  band No.  band energies     occupation 
      1      -1.9626      2.00000
      2       1.1615     -0.00000
      3       5.6047     -0.00000
      4       5.7720     -0.00000
      5       5.7720     -0.00000

 k-point     6 :       0.3846    0.0000    0.0000
  band No.  band energies     occupation 
      1      -1.5208      2.00000
      2       0.3605      1.44164
      3       6.0400      0.00000
      4       6.1524      0.00000
      5       6.1524      0.00000

 k-point     7 :       0.4615    0.0000    0.0000
  band No.  band energies     occupation 
      1      -0.9845      2.00000
      2      -0.3563      2.00000
      3       6.5718      0.00000
      4       6.6186      0.00000
      5       6.6186      0.00000

 k-point     8 :       0.0769    0.0769    0.0000
  band No.  band energies     occupation 
      1      -2.6553      2.00000
      2       3.8686     -0.00000
      3       4.2171     -0.00000
      4       5.1820     -0.00000
      5       5.5090     -0.00000

 k-point     9 :       0.1538    0.0769    0.0000
  band No.  band energies     occupation 
      1      -2.5063      2.00000
      2       3.0162     -0.00000
      3       4.2262     -0.00000
      4       5.3081     -0.00000
      5       5.7046     -0.00000

 k-point    10 :       0.2308    0.0769    0.0000
  band No.  band energies     occupation 
      1      -2.2587      2.00000
      2       2.0829     -0.00000
      3       4.4439     -0.00000
      4       5.5187     -0.00000
      5       5.9523      0.00000

 k-point    11 :       0.3077    0.0769    0.0000
  band No.  band energies     occupation 
      1      -1.9134      2.00000
      2       1.2075     -0.00000
      3       4.7598     -0.00000
      4       5.8139     -0.00000
      5       6.2863      0.00000

 k-point    12 :       0.3846    0.0769    0.0000
  band No.  band energies     occupation 
      1      -1.4719      2.00000
      2       0.4078      1.06005
      3       5.1677     -0.00000
      4       6.1943      0.00000
      5       6.9281      0.00000

 k-point    13 :       0.4615    0.0769    0.0000
  band No.  band energies     occupation 
      1      -0.9360      2.00000
      2      -0.3083      2.00000
      3       5.6658     -0.00000
      4       6.2530      0.00000
      5       6.6604      0.00000

 k-point    14 :       0.1538    0.1538    0.0000
  band No.  band energies     occupation 
      1      -2.3577      2.00000
      2       2.9674     -0.00000
      3       3.4315     -0.00000
      4       5.4343     -0.00000
      5       8.4829      0.00000

 k-point    15 :       0.2308    0.1538    0.0000
  band No.  band energies     occupation 
      1      -2.1105      2.00000
      2       2.2032     -0.00000
      3       3.4805     -0.00000
      4       5.6448     -0.00000
      5       7.5642      0.00000

 k-point    16 :       0.3077    0.1538    0.0000
  band No.  band energies     occupation 
      1      -1.7659      2.00000
      2       1.3438     -0.00000
      3       3.7825     -0.00000
      4       5.9399      0.00000
      5       6.5847      0.00000

 k-point    17 :       0.3846    0.1538    0.0000
  band No.  band energies     occupation 
      1      -1.3253      2.00000
      2       0.5490      0.10163
      3       4.1888     -0.00000
      4       6.3201      0.00000
      5       7.0238      0.00000

 k-point    18 :       0.4615    0.1538    0.0000
  band No.  band energies     occupation 
      1      -0.7907      2.00000
      2      -0.1646      2.00033
      3       4.6884     -0.00000
      4       5.2781     -0.00000
      5       6.7857      0.00000

 k-point    19 :       0.2308    0.2308    0.0000
  band No.  band energies     occupation 
      1      -1.8642      2.00000
      2       2.2461     -0.00000
      3       2.7251     -0.00000
      4       5.8551     -0.00000
      5       6.6442      0.00000

 k-point    20 :       0.3077    0.2308    0.0000
  band No.  band energies     occupation 
      1      -1.5208      2.00000
      2       1.5606     -0.00000
      3       2.8574     -0.00000
      4       5.7961     -0.00000
      5       6.1499      0.00000

 k-point    21 :       0.3846    0.2308    0.0000
  band No.  band energies     occupation 
      1      -1.0818      2.00000
      2       0.7820     -0.02621
      3       3.2530     -0.00000
      4       5.0288     -0.00000
      5       6.5296      0.00000

 k-point    22 :       0.4615    0.2308    0.0000
  band No.  band energies     occupation 
      1      -0.5493      2.00000
      2       0.0737      2.03660
      3       3.7536     -0.00000
      4       6.9942      0.00000
      5       7.8392      0.00000

 k-point    23 :       0.3077    0.3077    0.0000
  band No.  band energies     occupation 
      1      -1.1791      2.00000
      2       1.7056     -0.00000
      3       2.1650     -0.00000
      4       6.4442      0.00000
      5       7.2291      0.00000

 k-point    24 :       0.3846    0.3077    0.0000
  band No.  band energies     occupation 
      1      -0.7425      2.00000
      2       1.0972     -0.00002
      3       2.3972     -0.00000
      4       6.8226      0.00000
      5       7.6663      0.00000

 k-point    25 :       0.4615    0.3077    0.0000
  band No.  band energies     occupation 
      1      -0.2133      2.00008
      2       0.4042      1.09008
      3       2.8900     -0.00000
      4       3.4855     -0.00000
      5       7.2846      0.00000

 k-point    26 :       0.3846    0.3846    0.0000
  band No.  band energies     occupation 
      1      -0.3092      2.00000
      2       1.3457     -0.00000
      3       1.7803     -0.00000
      4       3.3953     -0.00000
      5       7.1982      0.00000

 k-point    27 :       0.4615    0.3846    0.0000
  band No.  band energies     occupation 
      1       0.2144      2.05073
      2       0.8174     -0.01534
      3       2.1165     -0.00000
      4       2.7061     -0.00000
      5       7.6530      0.00000

 k-point    28 :       0.4615    0.4615    0.0000
  band No.  band energies     occupation 
      1       0.7239     -0.05121
      2       1.1658     -0.00000
      3       1.5849     -0.00000
      4       2.0223     -0.00000
      5       8.0807      0.00000

 k-point    29 :       0.0769    0.0769    0.0769
  band No.  band energies     occupation 
      1      -2.6056      2.00000
      2       3.9140     -0.00000
      3       3.9140     -0.00000
      4       4.6998     -0.00000
      5       6.2890      0.00000

 k-point    30 :       0.1538    0.0769    0.0769
  band No.  band energies     occupation 
      1      -2.4567      2.00000
      2       3.0502     -0.00000
      3       4.0504     -0.00000
      4       4.7080     -0.00000
      5       6.4240      0.00000

 k-point    31 :       0.2308    0.0769    0.0769
  band No.  band energies     occupation 
      1      -2.2093      2.00000
      2       2.1259     -0.00000
      3       4.2775     -0.00000
      4       4.9095     -0.00000
      5       6.6494      0.00000

 k-point    32 :       0.3077    0.0769    0.0769
  band No.  band energies     occupation 
      1      -1.8642      2.00000
      2       1.2534     -0.00000
      3       4.5954     -0.00000
      4       5.2155     -0.00000
      5       6.9654      0.00000

 k-point    33 :       0.3846    0.0769    0.0769
  band No.  band energies     occupation 
      1      -1.4230      2.00000
      2       0.4549      0.66816
      3       5.0039     -0.00000
      4       5.6130     -0.00000
      5       6.7715      0.00000

 k-point    34 :       0.4615    0.0769    0.0769
  band No.  band energies     occupation 
      1      -0.8875      2.00000
      2      -0.2604      2.00002
      3       5.5029     -0.00000
      4       6.0922      0.00000
      5       6.0976      0.00000

 k-point    35 :       0.1538    0.1538    0.0769
  band No.  band energies     occupation 
      1      -2.3082      2.00000
      2       3.0126     -0.00000
      3       3.4221     -0.00000
      4       4.6478     -0.00000
      5       6.8319      0.00000

 k-point    36 :       0.2308    0.1538    0.0769
  band No.  band energies     occupation 
      1      -2.0612      2.00000
      2       2.2465     -0.00000
      3       3.4955     -0.00000
      4       4.8444     -0.00000
      5       7.1040      0.00000

 k-point    37 :       0.3077    0.1538    0.0769
  band No.  band energies     occupation 
      1      -1.7168      2.00000
      2       1.3895     -0.00000
      3       3.8001     -0.00000
      4       5.1516     -0.00000
      5       6.7358      0.00000

 k-point    38 :       0.3846    0.1538    0.0769
  band No.  band energies     occupation 
      1      -1.2765      2.00000
      2       0.5960     -0.02475
      3       4.2063     -0.00000
      4       5.5521     -0.00000
      5       5.9721      0.00000

 k-point    39 :       0.4615    0.1538    0.0769
  band No.  band energies     occupation 
      1      -0.7423      2.00000
      2      -0.1168      2.00111
      3       4.7053     -0.00000
      4       5.2945     -0.00000
      5       6.0407      0.00000

 k-point    40 :       0.2308    0.2308    0.0769
  band No.  band energies     occupation 
      1      -1.8151      2.00000
      2       2.2911     -0.00000
      3       2.7594     -0.00000
      4       5.0413     -0.00000
      5       6.6753      0.00000

 k-point    41 :       0.3077    0.2308    0.0769
  band No.  band energies     occupation 
      1      -1.4719      2.00000
      2       1.6060     -0.00000
      3       2.8961     -0.00000
      4       5.3477     -0.00000
      5       5.8308     -0.00000

 k-point    42 :       0.3846    0.2308    0.0769
  band No.  band energies     occupation 
      1      -1.0332      2.00000
      2       0.8287     -0.01271
      3       3.2918     -0.00000
      4       5.0650     -0.00000
      5       5.7469     -0.00000

 k-point    43 :       0.4615    0.2308    0.0769
  band No.  band energies     occupation 
      1      -0.5011      2.00000
      2       0.1213      2.05812
      3       3.7917     -0.00000
      4       4.3841     -0.00000
      5       6.2332      0.00000

 k-point    44 :       0.3077    0.3077    0.0769
  band No.  band energies     occupation 
      1      -1.1305      2.00000
      2       1.7505     -0.00000
      3       2.2090     -0.00000
      4       4.9833     -0.00000
      5       5.6521     -0.00000

 k-point    45 :       0.3846    0.3077    0.0769
  band No.  band energies     occupation 
      1      -0.6942      2.00000
      2       1.1434     -0.00000
      3       2.4415     -0.00000
      4       4.2133     -0.00000
      5       6.0477      0.00000

 k-point    46 :       0.4615    0.3077    0.0769
  band No.  band energies     occupation 
      1      -0.1654      2.00032
      2       0.4514      0.69660
      3       2.9336     -0.00000
      4       3.5282     -0.00000
      5       6.5280      0.00000

 k-point    47 :       0.3846    0.3846    0.0769
  band No.  band energies     occupation 
      1      -0.2613      2.00002
      2       1.3905     -0.00000
      3       1.8274     -0.00000
      4       3.4390     -0.00000
      5       6.4369      0.00000

 k-point    48 :       0.4615    0.3846    0.0769
  band No.  band energies     occupation 
      1       0.2618      1.96133
      2       0.8639     -0.00669
      3       2.1625     -0.00000
      4       2.7511     -0.00000
      5       6.9038      0.00000

 k-point    49 :       0.4615    0.4615    0.0769
  band No.  band energies     occupation 
      1       0.7705     -0.03057
      2       1.2107     -0.00000
      3       1.6331     -0.00000
      4       2.0687     -0.00000
      5       7.3290      0.00000

 k-point    50 :       0.1538    0.1538    0.1538
  band No.  band energies     occupation 
      1      -2.1599      2.00000
      2       3.1481     -0.00000
      3       3.1481     -0.00000
      4       4.0485     -0.00000
      5       8.4343      0.00000

 k-point    51 :       0.2308    0.1538    0.1538
  band No.  band energies     occupation 
      1      -1.9134      2.00000
      2       2.3695     -0.00000
      3       3.3740     -0.00000
      4       4.1031     -0.00000
      5       7.4894      0.00000

 k-point    52 :       0.3077    0.1538    0.1538
  band No.  band energies     occupation 
      1      -1.5698      2.00000
      2       1.5251     -0.00000
      3       3.6903     -0.00000
      4       4.3891     -0.00000
      5       6.6308      0.00000

 k-point    53 :       0.3846    0.1538    0.1538
  band No.  band energies     occupation 
      1      -1.1304      2.00000
      2       0.7365     -0.04536
      3       4.0972     -0.00000
      4       4.7901     -0.00000
      5       6.5190      0.00000

 k-point    54 :       0.4615    0.1538    0.1538
  band No.  band energies     occupation 
      1      -0.5975      2.00000
      2       0.0263      2.01915
      3       4.5947     -0.00000
      4       5.2849     -0.00000
      5       5.8642     -0.00000

 k-point    55 :       0.2308    0.2308    0.1538
  band No.  band energies     occupation 
      1      -1.6678      2.00000
      2       2.4262     -0.00000
      3       2.8298     -0.00000
      4       4.0933     -0.00000
      5       6.7512      0.00000

 k-point    56 :       0.3077    0.2308    0.1538
  band No.  band energies     occupation 
      1      -1.3254      2.00000
      2       1.7409     -0.00000
      3       2.9949     -0.00000
      4       4.3744     -0.00000
      5       5.9200      0.00000

 k-point    57 :       0.3846    0.2308    0.1538
  band No.  band energies     occupation 
      1      -0.8877      2.00000
      2       0.9683     -0.00065
      3       3.3921     -0.00000
      4       4.7732     -0.00000
      5       5.1580     -0.00000

 k-point    58 :       0.4615    0.2308    0.1538
  band No.  band energies     occupation 
      1      -0.3569      2.00000
      2       0.2637      1.95584
      3       3.8901     -0.00000
      4       4.4799     -0.00000
      5       5.2658     -0.00000

 k-point    59 :       0.3077    0.3077    0.1538
  band No.  band energies     occupation 
      1      -0.9847      2.00000
      2       1.8854     -0.00000
      3       2.3350     -0.00000
      4       4.6541     -0.00000
      5       5.0966     -0.00000

 k-point    60 :       0.3846    0.3077    0.1538
  band No.  band energies     occupation 
      1      -0.5495      2.00000
      2       1.2814     -0.00000
      3       2.5707     -0.00000
      4       4.3340     -0.00000
      5       5.0489     -0.00000

 k-point    61 :       0.4615    0.3077    0.1538
  band No.  band energies     occupation 
      1      -0.0222      2.00840
      2       0.5926     -0.01874
      3       3.0610     -0.00000
      4       3.6529     -0.00000
      5       5.5344     -0.00000

 k-point    62 :       0.3846    0.3846    0.1538
  band No.  band energies     occupation 
      1      -0.1178      2.00108
      2       1.5252     -0.00000
      3       1.9666     -0.00000
      4       3.5681     -0.00000
      5       5.4363     -0.00000

 k-point    63 :       0.4615    0.3846    0.1538
  band No.  band energies     occupation 
      1       0.4036      1.09496
      2       1.0031     -0.00026
      3       2.2990     -0.00000
      4       2.8845     -0.00000
      5       5.9060      0.00000

 k-point    64 :       0.4615    0.4615    0.1538
  band No.  band energies     occupation 
      1       0.9100     -0.00258
      2       1.3453     -0.00000
      3       1.7764     -0.00000
      4       2.2069     -0.00000
      5       6.3287      0.00000

 k-point    65 :       0.2308    0.2308    0.2308
  band No.  band energies     occupation 
      1      -1.4231      2.00000
      2       2.6515     -0.00000
      3       2.6515     -0.00000
      4       3.5495     -0.00000
      5       6.7615      0.00000

 k-point    66 :       0.3077    0.2308    0.2308
  band No.  band energies     occupation 
      1      -1.0819      2.00000
      2       1.9571     -0.00000
      3       2.9670     -0.00000
      4       3.6919     -0.00000
      5       6.4016      0.00000

 k-point    67 :       0.3846    0.2308    0.2308
  band No.  band energies     occupation 
      1      -0.6459      2.00000
      2       1.1984     -0.00000
      3       3.3730     -0.00000
      4       4.0719     -0.00000
      5       5.7761     -0.00000

 k-point    68 :       0.4615    0.2308    0.2308
  band No.  band energies     occupation 
      1      -0.1175      2.00109
      2       0.4997      0.34859
      3       3.8695     -0.00000
      4       4.5638     -0.00000
      5       5.1402     -0.00000

 k-point    69 :       0.3077    0.3077    0.2308
  band No.  band energies     occupation 
      1      -0.7426      2.00000
      2       2.1103     -0.00000
      3       2.5035     -0.00000
      4       3.7691     -0.00000
      5       5.2588     -0.00000

 k-point    70 :       0.3846    0.3077    0.2308
  band No.  band energies     occupation 
      1      -0.3092      2.00000
      2       1.5092     -0.00000
      3       2.7630     -0.00000
      4       4.1409     -0.00000
      5       4.5140     -0.00000

 k-point    71 :       0.4615    0.3077    0.2308
  band No.  band energies     occupation 
      1       0.2156      2.04947
      2       0.8266     -0.01316
      3       3.2521     -0.00000
      4       3.8395     -0.00000
      5       4.6248     -0.00000

 k-point    72 :       0.3846    0.3846    0.2308
  band No.  band energies     occupation 
      1       0.1205      2.05778
      2       1.7498     -0.00000
      3       2.1887     -0.00000
      4       3.7751     -0.00000
      5       4.5052     -0.00000

 k-point    73 :       0.4615    0.3846    0.2308
  band No.  band energies     occupation 
      1       0.6390     -0.06709
      2       1.2340     -0.00000
      3       2.5204     -0.00000
      4       3.1006     -0.00000
      5       4.9726     -0.00000

 k-point    74 :       0.4615    0.4615    0.2308
  band No.  band energies     occupation 
      1       1.1416     -0.00000
      2       1.5698     -0.00000
      3       2.0100     -0.00000
      4       2.4332     -0.00000
      5       5.3905     -0.00000

 k-point    75 :       0.3077    0.3077    0.3077
  band No.  band energies     occupation 
      1      -0.4052      2.00000
      2       2.4253     -0.00000
      3       2.4253     -0.00000
      4       3.3024     -0.00000
      5       5.3580     -0.00000

 k-point    76 :       0.3846    0.3077    0.3077
  band No.  band energies     occupation 
      1       0.0255      2.01890
      2       1.8183     -0.00000
      3       2.8306     -0.00000
      4       3.5372     -0.00000
      5       5.0908     -0.00000

 k-point    77 :       0.4615    0.3077    0.3077
  band No.  band energies     occupation 
      1       0.5462      0.11219
      2       1.1506     -0.00000
      3       3.3264     -0.00000
      4       4.0002     -0.00000
      5       4.5487     -0.00000

 k-point    78 :       0.3846    0.3846    0.3077
  band No.  band energies     occupation 
      1       0.4521      0.69109
      2       2.0645     -0.00000
      3       2.4528     -0.00000
      4       3.7026     -0.00000
      5       4.0333     -0.00000

 k-point    79 :       0.4615    0.3846    0.3077
  band No.  band energies     occupation 
      1       0.9661     -0.00068
      2       1.5538     -0.00000
      3       2.8036     -0.00000
      4       3.3781     -0.00000
      5       4.1463     -0.00000

 k-point    80 :       0.4615    0.4615    0.3077
  band No.  band energies     occupation 
      1       1.4633     -0.00000
      2       1.8843     -0.00000
      3       2.3219     -0.00000
      4       2.7380     -0.00000
      5       4.5413     -0.00000

 k-point    81 :       0.3846    0.3846    0.3846
  band No.  band energies     occupation 
      1       0.8742     -0.00547
      2       2.4694     -0.00000
      3       2.4694     -0.00000
      4       3.3159     -0.00000
      5       4.2275     -0.00000

 k-point    82 :       0.4615    0.3846    0.3846
  band No.  band energies     occupation 
      1       1.3810     -0.00000
      2       1.9533     -0.00000
      3       2.9648     -0.00000
      4       3.6133     -0.00000
      5       4.0476     -0.00000

 k-point    83 :       0.4615    0.4615    0.3846
  band No.  band energies     occupation 
      1       1.8709     -0.00000
      2       2.2890     -0.00000
      3       2.6695     -0.00000
      4       3.0905     -0.00000
      5       3.8093     -0.00000

 k-point    84 :       0.4615    0.4615    0.4615
  band No.  band energies     occupation 
      1       2.3498     -0.00000
      2       2.7841     -0.00000
      3       2.7841     -0.00000
      4       3.3699     -0.00000
      5       3.3962     -0.00000


--------------------------------------------------------------------------------------------------------


 soft charge-density along one line, spin component           1
         0         1         2         3         4         5         6         7         8         9
 total charge-density along one line

 pseudopotential strength for first ion, spin component:           1
  1.425   6.429   0.000   0.000   0.000
  6.429  28.516   0.000   0.000   0.000
  0.000   0.000   5.053  -0.000  -0.000
  0.000   0.000  -0.000   5.053   0.000
  0.000   0.000  -0.000   0.000   5.053
 total augmentation occupancy for first ion, spin component:           1
  0.817   0.004  -0.000   0.000  -0.000
  0.004   0.000   0.000   0.000   0.000
  0.000  -0.000   0.012  -0.000   0.000
  0.000   0.000  -0.000   0.012  -0.000
  0.000  -0.000  -0.000  -0.000   0.012


------------------------ aborting loop because EDIFF is reached ----------------------------------------


    CHARGE:  cpu time    0.1877: real time    0.1887
    FORLOC:  cpu time    0.0036: real time    0.0036
    FORNL :  cpu time    0.1172: real time    0.1178
    STRESS:  cpu time    0.9338: real time    0.9376
    FORCOR:  cpu time    0.0809: real time    0.0812
    FORHAR:  cpu time    0.0207: real time    0.0208
    MIXING:  cpu time    0.0027: real time    0.0027
    OFIELD:  cpu time    0.0000: real time    0.0000

  FORCE on cell =-STRESS in cart. coord.  units (eV):
  Direction    XX          YY          ZZ          XY          YZ          ZX
  --------------------------------------------------------------------------------------
  Alpha Z    -0.93315    -0.93315    -0.93315
  Ewald      -4.07942    -4.07942    -4.07942    -0.00000    -0.00000     0.00000
  Hartree     0.00886     0.00886     0.00886    -0.00000    -0.00000    -0.00000
  E(xc)      -3.68201    -3.68201    -3.68201    -0.00000     0.00000    -0.00000
  Local       0.77562     0.77562     0.77562     0.00000    -0.00000     0.00000
  n-local     4.58813     4.56071     4.53704     0.02616     0.00878     0.00965
  augment     0.16837     0.16837     0.16837    -0.00000    -0.00000     0.00000
  Kinetic     5.61149     2.27673     1.00168     1.80678     0.74506     0.82254
  Fock        0.00000     0.00000     0.00000     0.00000     0.00000     0.00000
  -------------------------------------------------------------------------------------
  Total      -0.21646    -0.21646    -0.21646     0.00000     0.00000     0.00000
  in kB      -4.41717    -4.41717    -4.41717     0.00000     0.00000     0.00000
  external pressure =       -4.42 kB  Pullay stress =        0.00 kB


 VOLUME and BASIS-vectors are now :
 -----------------------------------------------------------------------------
  energy-cutoff  :      500.00
  volume of cell :       78.51
      direct lattice vectors                 reciprocal lattice vectors
     4.282000065  0.000000000  0.000000000     0.233535727  0.000000000  0.000000000
     0.000000000  4.282000065  0.000000000     0.000000000  0.233535727  0.000000000
     0.000000000  0.000000000  4.282000065     0.000000000  0.000000000  0.233535727

  length of vectors
     4.282000065  4.282000065  4.282000065     0.233535727  0.233535727  0.233535727


 FORCES acting on ions
    electron-ion (+dipol)            ewald-force                    non-local-force                 convergence-correction
 -----------------------------------------------------------------------------------------------
   0.235E-11 0.235E-11 0.235E-11   -.307E-09 -.307E-09 -.307E-09   -.407E-24 0.646E-25 -.294E-24   -.551E-14 -.551E-14 -.551E-14
   -.135E-08 -.135E-08 -.135E-08   0.307E-09 0.307E-09 0.307E-09   -.214E-24 -.244E-24 -.232E-24   -.150E-13 -.150E-13 -.150E-13
 -----------------------------------------------------------------------------------------------
   -.135E-08 -.135E-08 -.135E-08   0.108E-16 0.436E-17 0.174E-18   -.622E-24 -.179E-24 -.526E-24   -.206E-13 -.206E-13 -.206E-13


 POSITION                                       TOTAL-FORCE (eV/Angst)
 -----------------------------------------------------------------------------------
      0.00000      0.00000      0.00000         0.000000      0.000000     -0.000000
      2.14100      2.14100      2.14100        -0.000000     -0.000000      0.000000
 -----------------------------------------------------------------------------------
    total drift:                               -0.000000     -0.000000     -0.000000


--------------------------------------------------------------------------------------------------------



  FREE ENERGIE OF THE ION-ELECTRON SYSTEM (eV)
  ---------------------------------------------------
  free  energy   TOTEN  =        -2.60633299 eV

  energy  without entropy=       -2.60542339  energy(sigma->0) =       -2.60602979



--------------------------------------------------------------------------------------------------------


    POTLOK:  cpu time    0.0790: real time    0.0793


--------------------------------------------------------------------------------------------------------




--------------------------------------------------------------------------------------------------------


  
 reached required accuracy - stopping structural energy minimisation
 writing wavefunctions
     LOOP+:  cpu time    9.0668: real time   13.8828
    4ORBIT:  cpu time    0.0000: real time    0.0000

 total amount of memory used by VASP MPI-rank0    60347. kBytes
=======================================================================

   base      :      30000. kBytes
   nonl-proj :       6824. kBytes
   fftplans  :       3916. kBytes
   grid      :       6018. kBytes
   one-center:          2. kBytes
   wavefun   :      13587. kBytes

  
  
 General timing and accounting informations for this job:
 ========================================================
  
                  Total CPU time used (sec):       10.606
                            User time (sec):       10.427
                          System time (sec):        0.178
                         Elapsed time (sec):       24.179
  
                   Maximum memory used (kb):      251992.
                   Average memory used (kb):          N/A
  
                          Minor page faults:        32050
                          Major page faults:           24
                 Voluntary context switches:         1946
    4ORBIT:  cpu time    0.0000: real time    0.0000

 total amount of memory used by VASP MPI-rank0    60347. kBytes
=======================================================================

   base      :      30000. kBytes
   nonl-proj :       6824. kBytes
   fftplans  :       3916. kBytes
   grid      :       6018. kBytes
   one-center:          2. kBytes
   wavefun   :      13587. kBytes

  
  
 General timing and accounting informations for this job:
 ========================================================
  
                  Total CPU time used (sec):        9.867
                            User time (sec):        9.695
                          System time (sec):        0.172
                         Elapsed time (sec):       24.003
  
                   Maximum memory used (kb):      251908.
                   Average memory used (kb):          N/A
  
                          Minor page faults:        31796
                          Major page faults:           21
                 Voluntary context switches:         2011
