<?xml version="1.0" encoding="ISO-8859-1"?>
<modeling>
 <generator>
  <i name="program" type="string">vasp </i>
  <i name="version" type="string">6.2.1  </i>
  <i name="subversion" type="string">16May21 (build Dec 20 2021 17:02:34) complex                          parallel </i>
  <i name="platform" type="string">LinuxGNU </i>
  <i name="date" type="string">2025 09 29 </i>
  <i name="time" type="string">12:09:26 </i>
 </generator>
 <incar>
  <i type="int" name="IBRION">     2</i>
  <i type="int" name="NSW">   100</i>
  <i type="int" name="ISIF">     3</i>
  <i name="ENCUT">    500.00000000</i>
  <i type="logical" name="LVTOT"> T  </i>
  <i type="logical" name="LVHAR"> T  </i>
 </incar>
 <primitive_cell>
  <structure name="primitive_cell" >
   <crystal>
    <varray name="basis" >
     <v>       2.14100003       2.14100003      -2.14100003 </v>
     <v>      -2.14100003       2.14100003       2.14100003 </v>
     <v>       2.14100003      -2.14100003       2.14100003 </v>
    </varray>
    <i name="volume">     39.25635866 </i>
    <varray name="rec_basis" >
     <v>       0.23353573       0.23353573      -0.00000000 </v>
     <v>       0.00000000       0.23353573       0.23353573 </v>
     <v>       0.23353573      -0.00000000       0.23353573 </v>
    </varray>
   </crystal>
   <varray name="positions" >
    <v>       0.00000000       0.00000000       0.00000000 </v>
   </varray>
  </structure>
  <varray name="primitive_index" >
   <v type="int" >        1 </v>
  </varray>
 </primitive_cell>
 <kpoints>
  <generation param="Monkhorst-Pack">
   <v type="int" name="divisions">      13       13       13 </v>
   <v name="usershift">      0.00000000       0.00000000       0.00000000 </v>
   <v name="genvec1">      0.07692308       0.00000000       0.00000000 </v>
   <v name="genvec2">      0.00000000       0.07692308       0.00000000 </v>
   <v name="genvec3">      0.00000000       0.00000000       0.07692308 </v>
   <v name="shift">      0.00000000       0.00000000       0.00000000 </v>
  </generation>
  <varray name="kpointlist" >
   <v>       0.00000000       0.00000000       0.00000000 </v>
   <v>       0.07692308       0.00000000       0.00000000 </v>
   <v>       0.15384615       0.00000000       0.00000000 </v>
   <v>       0.23076923       0.00000000       0.00000000 </v>
   <v>       0.30769231       0.00000000       0.00000000 </v>
   <v>       0.38461538       0.00000000       0.00000000 </v>
   <v>       0.46153846       0.00000000       0.00000000 </v>
   <v>       0.07692308       0.07692308       0.00000000 </v>
   <v>       0.15384615       0.07692308       0.00000000 </v>
   <v>       0.23076923       0.07692308       0.00000000 </v>
   <v>       0.30769231       0.07692308       0.00000000 </v>
   <v>       0.38461538       0.07692308       0.00000000 </v>
   <v>       0.46153846       0.07692308       0.00000000 </v>
   <v>       0.15384615       0.15384615       0.00000000 </v>
   <v>       0.23076923       0.15384615       0.00000000 </v>
   <v>       0.30769231       0.15384615       0.00000000 </v>
   <v>       0.38461538       0.15384615       0.00000000 </v>
   <v>       0.46153846       0.15384615       0.00000000 </v>
   <v>       0.23076923       0.23076923       0.00000000 </v>
   <v>       0.30769231       0.23076923       0.00000000 </v>
   <v>       0.38461538       0.23076923       0.00000000 </v>
   <v>       0.46153846       0.23076923       0.00000000 </v>
   <v>       0.30769231       0.30769231       0.00000000 </v>
   <v>       0.38461538       0.30769231       0.00000000 </v>
   <v>       0.46153846       0.30769231       0.00000000 </v>
   <v>       0.38461538       0.38461538       0.00000000 </v>
   <v>       0.46153846       0.38461538       0.00000000 </v>
   <v>       0.46153846       0.46153846       0.00000000 </v>
   <v>       0.07692308       0.07692308       0.07692308 </v>
   <v>       0.15384615       0.07692308       0.07692308 </v>
   <v>       0.23076923       0.07692308       0.07692308 </v>
   <v>       0.30769231       0.07692308       0.07692308 </v>
   <v>       0.38461538       0.07692308       0.07692308 </v>
   <v>       0.46153846       0.07692308       0.07692308 </v>
   <v>       0.15384615       0.15384615       0.07692308 </v>
   <v>       0.23076923       0.15384615       0.07692308 </v>
   <v>       0.30769231       0.15384615       0.07692308 </v>
   <v>       0.38461538       0.15384615       0.07692308 </v>
   <v>       0.46153846       0.15384615       0.07692308 </v>
   <v>       0.23076923       0.23076923       0.07692308 </v>
   <v>       0.30769231       0.23076923       0.07692308 </v>
   <v>       0.38461538       0.23076923       0.07692308 </v>
   <v>       0.46153846       0.23076923       0.07692308 </v>
   <v>       0.30769231       0.30769231       0.07692308 </v>
   <v>       0.38461538       0.30769231       0.07692308 </v>
   <v>       0.46153846       0.30769231       0.07692308 </v>
   <v>       0.38461538       0.38461538       0.07692308 </v>
   <v>       0.46153846       0.38461538       0.07692308 </v>
   <v>       0.46153846       0.46153846       0.07692308 </v>
   <v>       0.15384615       0.15384615       0.15384615 </v>
   <v>       0.23076923       0.15384615       0.15384615 </v>
   <v>       0.30769231       0.15384615       0.15384615 </v>
   <v>       0.38461538       0.15384615       0.15384615 </v>
   <v>       0.46153846       0.15384615       0.15384615 </v>
   <v>       0.23076923       0.23076923       0.15384615 </v>
   <v>       0.30769231       0.23076923       0.15384615 </v>
   <v>       0.38461538       0.23076923       0.15384615 </v>
   <v>       0.46153846       0.23076923       0.15384615 </v>
   <v>       0.30769231       0.30769231       0.15384615 </v>
   <v>       0.38461538       0.30769231       0.15384615 </v>
   <v>       0.46153846       0.30769231       0.15384615 </v>
   <v>       0.38461538       0.38461538       0.15384615 </v>
   <v>       0.46153846       0.38461538       0.15384615 </v>
   <v>       0.46153846       0.46153846       0.15384615 </v>
   <v>       0.23076923       0.23076923       0.23076923 </v>
   <v>       0.30769231       0.23076923       0.23076923 </v>
   <v>       0.38461538       0.23076923       0.23076923 </v>
   <v>       0.46153846       0.23076923       0.23076923 </v>
   <v>       0.30769231       0.30769231       0.23076923 </v>
   <v>       0.38461538       0.30769231       0.23076923 </v>
   <v>       0.46153846       0.30769231       0.23076923 </v>
   <v>       0.38461538       0.38461538       0.23076923 </v>
   <v>       0.46153846       0.38461538       0.23076923 </v>
   <v>       0.46153846       0.46153846       0.23076923 </v>
   <v>       0.30769231       0.30769231       0.30769231 </v>
   <v>       0.38461538       0.30769231       0.30769231 </v>
   <v>       0.46153846       0.30769231       0.30769231 </v>
   <v>       0.38461538       0.38461538       0.30769231 </v>
   <v>       0.46153846       0.38461538       0.30769231 </v>
   <v>       0.46153846       0.46153846       0.30769231 </v>
   <v>       0.38461538       0.38461538       0.38461538 </v>
   <v>       0.46153846       0.38461538       0.38461538 </v>
   <v>       0.46153846       0.46153846       0.38461538 </v>
   <v>       0.46153846       0.46153846       0.46153846 </v>
  </varray>
  <varray name="weights" >
   <v>       0.00045517 </v>
   <v>       0.00273100 </v>
   <v>       0.00273100 </v>
   <v>       0.00273100 </v>
   <v>       0.00273100 </v>
   <v>       0.00273100 </v>
   <v>       0.00273100 </v>
   <v>       0.00546199 </v>
   <v>       0.01092399 </v>
   <v>       0.01092399 </v>
   <v>       0.01092399 </v>
   <v>       0.01092399 </v>
   <v>       0.01092399 </v>
   <v>       0.00546199 </v>
   <v>       0.01092399 </v>
   <v>       0.01092399 </v>
   <v>       0.01092399 </v>
   <v>       0.01092399 </v>
   <v>       0.00546199 </v>
   <v>       0.01092399 </v>
   <v>       0.01092399 </v>
   <v>       0.01092399 </v>
   <v>       0.00546199 </v>
   <v>       0.01092399 </v>
   <v>       0.01092399 </v>
   <v>       0.00546199 </v>
   <v>       0.01092399 </v>
   <v>       0.00546199 </v>
   <v>       0.00364133 </v>
   <v>       0.01092399 </v>
   <v>       0.01092399 </v>
   <v>       0.01092399 </v>
   <v>       0.01092399 </v>
   <v>       0.01092399 </v>
   <v>       0.01092399 </v>
   <v>       0.02184797 </v>
   <v>       0.02184797 </v>
   <v>       0.02184797 </v>
   <v>       0.02184797 </v>
   <v>       0.01092399 </v>
   <v>       0.02184797 </v>
   <v>       0.02184797 </v>
   <v>       0.02184797 </v>
   <v>       0.01092399 </v>
   <v>       0.02184797 </v>
   <v>       0.02184797 </v>
   <v>       0.01092399 </v>
   <v>       0.02184797 </v>
   <v>       0.01092399 </v>
   <v>       0.00364133 </v>
   <v>       0.01092399 </v>
   <v>       0.01092399 </v>
   <v>       0.01092399 </v>
   <v>       0.01092399 </v>
   <v>       0.01092399 </v>
   <v>       0.02184797 </v>
   <v>       0.02184797 </v>
   <v>       0.02184797 </v>
   <v>       0.01092399 </v>
   <v>       0.02184797 </v>
   <v>       0.02184797 </v>
   <v>       0.01092399 </v>
   <v>       0.02184797 </v>
   <v>       0.01092399 </v>
   <v>       0.00364133 </v>
   <v>       0.01092399 </v>
   <v>       0.01092399 </v>
   <v>       0.01092399 </v>
   <v>       0.01092399 </v>
   <v>       0.02184797 </v>
   <v>       0.02184797 </v>
   <v>       0.01092399 </v>
   <v>       0.02184797 </v>
   <v>       0.01092399 </v>
   <v>       0.00364133 </v>
   <v>       0.01092399 </v>
   <v>       0.01092399 </v>
   <v>       0.01092399 </v>
   <v>       0.02184797 </v>
   <v>       0.01092399 </v>
   <v>       0.00364133 </v>
   <v>       0.01092399 </v>
   <v>       0.01092399 </v>
   <v>       0.00364133 </v>
  </varray>
 </kpoints>
 <parameters>
  <separator name="general" >
   <i type="string" name="SYSTEM">unknown system</i>
   <i type="logical" name="LCOMPAT"> F  </i>
  </separator>
  <separator name="electronic" >
   <i type="string" name="PREC">normal</i>
   <i name="ENMAX">    500.00000000</i>
   <i name="ENAUG">    250.69500000</i>
   <i name="EDIFF">      0.00010000</i>
   <i type="int" name="IALGO">    38</i>
   <i type="int" name="IWAVPR">    11</i>
   <i type="int" name="NBANDS">     5</i>
   <i type="int" name="NBANDSLOW">    -1</i>
   <i type="int" name="NBANDSHIGH">    -1</i>
   <i name="NELECT">      2.00000000</i>
   <i type="int" name="TURBO">     0</i>
   <i type="int" name="IRESTART">     0</i>
   <i type="int" name="NREBOOT">     0</i>
   <i type="int" name="NMIN">     0</i>
   <i name="EREF">      0.00000000</i>
   <separator name="electronic smearing" >
    <i type="int" name="ISMEAR">     1</i>
    <i name="SIGMA">      0.20000000</i>
    <i name="KSPACING">      0.50000000</i>
    <i type="logical" name="KGAMMA"> T  </i>
    <i type="logical" name="KBLOWUP"> T  </i>
   </separator>
   <separator name="electronic projectors" >
    <i type="logical" name="LREAL"> F  </i>
    <v name="ROPT">      0.00000000</v>
    <i type="int" name="LMAXPAW">  -100</i>
    <i type="int" name="LMAXMIX">     2</i>
    <i type="logical" name="NLSPLINE"> F  </i>
   </separator>
   <separator name="electronic startup" >
    <i type="int" name="ISTART">     1</i>
    <i type="int" name="ICHARG">     0</i>
    <i type="int" name="INIWAV">     1</i>
   </separator>
   <separator name="electronic spin" >
    <i type="int" name="ISPIN">     1</i>
    <i type="logical" name="LNONCOLLINEAR"> F  </i>
    <v name="MAGMOM">      1.00000000      1.00000000</v>
    <i name="NUPDOWN">     -1.00000000</i>
    <i type="logical" name="LSORBIT"> F  </i>
    <v name="SAXIS">      0.00000000      0.00000000      1.00000000</v>
    <i type="logical" name="LSPIRAL"> F  </i>
    <v name="QSPIRAL">      0.00000000      0.00000000      0.00000000</v>
    <i type="logical" name="LZEROZ"> F  </i>
   </separator>
   <separator name="electronic exchange-correlation" >
    <i type="logical" name="LASPH"> F  </i>
    <i type="logical" name="LMETAGGA"> F  </i>
   </separator>
   <separator name="electronic convergence" >
    <i type="int" name="NELM">    60</i>
    <i type="int" name="NELMDL">     0</i>
    <i type="int" name="NELMIN">     2</i>
    <i name="ENINI">    500.00000000</i>
    <separator name="electronic convergence detail" >
     <i type="logical" name="LDIAG"> T  </i>
     <i type="logical" name="LSUBROT"> F  </i>
     <i name="WEIMIN">      0.00100000</i>
     <i name="EBREAK">      0.00000500</i>
     <i name="DEPER">      0.30000000</i>
     <i type="int" name="NRMM">     4</i>
     <i name="TIME">      0.40000000</i>
    </separator>
   </separator>
   <separator name="electronic mixer" >
    <i name="AMIX">      0.40000000</i>
    <i name="BMIX">      1.00000000</i>
    <i name="AMIN">      0.10000000</i>
    <i name="AMIX_MAG">      1.60000000</i>
    <i name="BMIX_MAG">      1.00000000</i>
    <separator name="electronic mixer details" >
     <i type="int" name="IMIX">     4</i>
     <i type="logical" name="MIXFIRST"> F  </i>
     <i type="int" name="MAXMIX">   -45</i>
     <i name="WC">    100.00000000</i>
     <i type="int" name="INIMIX">     1</i>
     <i type="int" name="MIXPRE">     1</i>
     <i type="int" name="MREMOVE">     5</i>
    </separator>
   </separator>
   <separator name="electronic dipolcorrection" >
    <i type="logical" name="LDIPOL"> F  </i>
    <i type="logical" name="LMONO"> F  </i>
    <i type="int" name="IDIPOL">     0</i>
    <i name="EPSILON">      1.00000000</i>
    <v name="DIPOL">   -100.00000000   -100.00000000   -100.00000000</v>
    <i name="EFIELD">      0.00000000</i>
   </separator>
  </separator>
  <separator name="grids" >
   <i type="int" name="NGX">    24</i>
   <i type="int" name="NGY">    24</i>
   <i type="int" name="NGZ">    24</i>
   <i type="int" name="NGXF">    48</i>
   <i type="int" name="NGYF">    48</i>
   <i type="int" name="NGZF">    48</i>
   <i type="logical" name="ADDGRID"> F  </i>
  </separator>
  <separator name="ionic" >
   <i type="int" name="NSW">   100</i>
   <i type="int" name="IBRION">     2</i>
   <i type="int" name="MDALGO">     0</i>
   <i type="int" name="ISIF">     3</i>
   <i name="PSTRESS">      0.00000000</i>
   <i name="EDIFFG">      0.00100000</i>
   <i type="int" name="NFREE">     1</i>
   <i name="POTIM">      0.50000000</i>
   <i name="SMASS">     -3.00000000</i>
   <i name="SCALEE">      1.00000000</i>
  </separator>
  <separator name="ionic md" >
   <i name="TEBEG">      0.00010000</i>
   <i name="TEEND">      0.00010000</i>
   <i type="int" name="NBLOCK">     1</i>
   <i type="int" name="KBLOCK">   100</i>
   <i type="int" name="NPACO">   256</i>
   <i name="APACO">     16.00000000</i>
  </separator>
  <separator name="symmetry" >
   <i type="int" name="ISYM">     2</i>
   <i name="SYMPREC">      0.00001000</i>
  </separator>
  <separator name="dos" >
   <i type="int" name="LORBIT">     0</i>
   <v name="RWIGS">     -1.00000000</v>
   <i type="int" name="NEDOS">   301</i>
   <i name="EMIN">     10.00000000</i>
   <i name="EMAX">    -10.00000000</i>
   <i name="EFERMI">      0.00000000</i>
  </separator>
  <separator name="writing" >
   <i type="int" name="NWRITE">     2</i>
   <i type="logical" name="LWAVE"> T  </i>
   <i type="logical" name="LDOWNSAMPLE"> F  </i>
   <i type="logical" name="LCHARG"> T  </i>
   <i type="logical" name="LPARD"> F  </i>
   <i type="logical" name="LVTOT"> F  </i>
   <i type="logical" name="LVHAR"> T  </i>
   <i type="logical" name="LELF"> F  </i>
   <i type="logical" name="LOPTICS"> F  </i>
   <v name="STM">      0.00000000      0.00000000      0.00000000      0.00000000      0.00000000      0.00000000      0.00000000</v>
  </separator>
  <separator name="performance" >
   <i type="int" name="NPAR">     1</i>
   <i type="int" name="NSIM">     4</i>
   <i type="int" name="NBLK">    -1</i>
   <i type="logical" name="LPLANE"> T  </i>
   <i type="logical" name="LSCALAPACK"> T  </i>
   <i type="logical" name="LSCAAWARE"> F  </i>
   <i type="logical" name="LSCALU"> F  </i>
   <i type="logical" name="LASYNC"> F  </i>
   <i type="logical" name="LORBITALREAL"> F  </i>
  </separator>
  <separator name="miscellaneous" >
   <i type="int" name="IDIOT">     3</i>
   <i type="int" name="PHON_NSTRUCT">    -1</i>
   <i type="logical" name="LMUSIC"> F  </i>
   <v name="POMASS">     22.99000000</v>
   <v name="DARWINR">      0.00000000</v>
   <v name="DARWINV">      1.00000000</v>
   <i type="logical" name="LCORR"> T  </i>
  </separator>
  <i type="logical" name="GGA_COMPAT"> T  </i>
  <i type="logical" name="LBERRY"> F  </i>
  <i type="int" name="ICORELEVEL">     0</i>
  <i type="logical" name="LDAU"> F  </i>
  <i type="int" name="I_CONSTRAINED_M">     0</i>
  <separator name="electronic exchange-correlation" >
   <i type="string" name="GGA">--</i>
   <i type="int" name="VOSKOWN">     0</i>
   <i type="logical" name="LHFCALC"> F  </i>
   <i type="string" name="PRECFOCK"></i>
   <i type="logical" name="LSYMGRAD"> F  </i>
   <i type="logical" name="LHFONE"> F  </i>
   <i type="logical" name="LRHFCALC"> F  </i>
   <i type="logical" name="LTHOMAS"> F  </i>
   <i type="logical" name="LMODELHF"> F  </i>
   <i type="logical" name="LFOCKACE"> F  </i>
   <i name="ENCUT4O">     -1.00000000</i>
   <i type="int" name="EXXOEP">     0</i>
   <i type="int" name="FOURORBIT">     0</i>
   <i name="AEXX">      0.00000000</i>
   <i name="HFALPHA">      0.00000000</i>
   <i name="MCALPHA">      0.00000000</i>
   <i name="ALDAX">      1.00000000</i>
   <i name="AGGAX">      1.00000000</i>
   <i name="ALDAC">      1.00000000</i>
   <i name="AGGAC">      1.00000000</i>
   <i type="int" name="NKREDX">     1</i>
   <i type="int" name="NKREDY">     1</i>
   <i type="int" name="NKREDZ">     1</i>
   <i type="logical" name="SHIFTRED"> F  </i>
   <i type="logical" name="ODDONLY"> F  </i>
   <i type="logical" name="EVENONLY"> F  </i>
   <i type="int" name="LMAXFOCK">     0</i>
   <i type="int" name="NMAXFOCKAE">     0</i>
   <i type="logical" name="LFOCKAEDFT"> F  </i>
   <i name="HFSCREEN">      0.00000000</i>
   <i name="HFSCREENC">      0.00000000</i>
   <i type="int" name="NBANDSGWLOW">     0</i>
  </separator>
  <separator name="vdW DFT" >
   <i type="logical" name="LUSE_VDW"> F  </i>
   <i name="Zab_VDW">     -0.84910000</i>
   <i name="PARAM1">      0.12340000</i>
   <i name="PARAM2">      1.00000000</i>
   <i name="PARAM3">      0.00000000</i>
  </separator>
  <separator name="model GW" >
   <i type="int" name="MODEL_GW">     0</i>
   <i name="MODEL_EPS0">     23.55381520</i>
   <i name="MODEL_ALPHA">      1.00000000</i>
  </separator>
  <separator name="linear response parameters" >
   <i type="logical" name="LEPSILON"> F  </i>
   <i type="logical" name="LRPA"> F  </i>
   <i type="logical" name="LNABLA"> F  </i>
   <i type="logical" name="LVEL"> F  </i>
   <i type="int" name="KINTER">     0</i>
   <i name="CSHIFT">      0.10000000</i>
   <i name="OMEGAMAX">     -1.00000000</i>
   <i name="DEG_THRESHOLD">      0.00200000</i>
   <i name="RTIME">     -0.10000000</i>
   <i name="WPLASMAI">      0.00000000</i>
   <v name="DFIELD">      0.00000000      0.00000000      0.00000000</v>
   <v name="WPLASMA">      0.00000000      0.00000000      0.00000000      0.00000000      0.00000000      0.00000000      0.00000000      0.00000000      0.00000000</v>
  </separator>
  <separator name="orbital magnetization" >
   <i type="logical" name="NUCIND"> F  </i>
   <v name="MAGPOS">      0.00000000      0.00000000      0.00000000</v>
   <i type="logical" name="LNICSALL"> T  </i>
   <i type="logical" name="ORBITALMAG"> F  </i>
   <i type="logical" name="LMAGBLOCH"> F  </i>
   <i type="logical" name="LCHIMAG"> F  </i>
   <i type="logical" name="LGAUGE"> T  </i>
   <i type="int" name="MAGATOM">     0</i>
   <v name="MAGDIPOL">      0.00000000      0.00000000      0.00000000</v>
   <v name="AVECCONST">      0.00000000      0.00000000      0.00000000</v>
  </separator>
  <separator name="response functions" >
   <i type="logical" name="LFINITE_TEMPERATURE"> F  </i>
   <i type="logical" name="LADDER"> F  </i>
   <i type="logical" name="LRPAFORCE"> F  </i>
   <i type="logical" name="LFXC"> F  </i>
   <i type="logical" name="LHARTREE"> T  </i>
   <i type="int" name="IBSE">     0</i>
   <v type="int" name="KPOINT">    -1     0     0     0</v>
   <i type="logical" name="LTCTC"> F  </i>
   <i type="logical" name="LTCTE"> F  </i>
   <i type="logical" name="LTETE"> F  </i>
   <i type="logical" name="LTRIPLET"> F  </i>
   <i type="logical" name="LFXCEPS"> F  </i>
   <i type="logical" name="LFXHEG"> F  </i>
   <i type="int" name="NATURALO">     2</i>
   <i type="logical" name="LHOLEGF"> F  </i>
   <i type="logical" name="L2ORDER"> F  </i>
   <i type="logical" name="LDMP1"> F  </i>
   <i type="logical" name="LMP2LT"> F  </i>
   <i type="logical" name="LSMP2LT"> F  </i>
   <i type="logical" name="LGWLF"> F  </i>
   <i name="ENCUTGW">     -2.00000000</i>
   <i name="ENCUTGWSOFT">     -2.00000000</i>
   <i name="ENCUTLF">     -1.00000000</i>
   <i type="logical" name="LESF_SPLINES"> F  </i>
   <i type="int" name="LMAXMP2">    -1</i>
   <i name="SCISSOR">      0.00000000</i>
   <i type="int" name="NOMEGA">     0</i>
   <i type="int" name="NOMEGAR">     0</i>
   <i type="int" name="NBANDSGW">    -1</i>
   <i type="int" name="NBANDSO">    -1</i>
   <i type="int" name="NBANDSV">    -1</i>
   <i type="int" name="NELM">     1</i>
   <i type="int" name="NELMHF">     1</i>
   <i type="int" name="DIM">     3</i>
   <i type="int" name="IESPILON">     4</i>
   <i type="int" name="ANTIRES">     0</i>
   <i name="OMEGAMAX">    -30.00000000</i>
   <i name="OMEGAMIN">    -30.00000000</i>
   <i name="OMEGATL">   -200.00000000</i>
   <i type="int" name="OMEGAGRID">     0</i>
   <i name="CSHIFT">     -0.10000000</i>
   <i type="logical" name="LSELFENERGY"> F  </i>
   <i type="logical" name="LSPECTRAL"> F  </i>
   <i type="logical" name="LSPECTRALGW"> F  </i>
   <i type="logical" name="LSINGLES"> F  </i>
   <i type="logical" name="LFERMIGW"> F  </i>
   <i type="logical" name="ODDONLYGW"> F  </i>
   <i type="logical" name="EVENONLYGW"> F  </i>
   <i type="int" name="NKREDLFX">     1</i>
   <i type="int" name="NKREDLFY">     1</i>
   <i type="int" name="NKREDLFZ">     1</i>
   <i type="int" name="MAXMEM">  2800</i>
   <i type="int" name="TELESCOPE">     0</i>
   <i type="int" name="NTAUPAR">    -1</i>
   <i type="int" name="NOMEGAPAR">    -1</i>
   <i name="DAMP_NEWTON">      0.80000001</i>
   <i name="LAMBDA">      1.00000000</i>
  </separator>
  <separator name="External order field" >
   <i name="OFIELD_KAPPA">      0.00000000</i>
   <v name="OFIELD_K">      0.00000000      0.00000000      0.00000000</v>
   <i name="OFIELD_Q6_NEAR">      0.00000000</i>
   <i name="OFIELD_Q6_FAR">      0.00000000</i>
   <i name="OFIELD_A">      0.00000000</i>
  </separator>
 </parameters>
 <atominfo>
  <atoms>       2 </atoms>
  <types>       1 </types>
  <array name="atoms" >
   <dimension dim="1">ion</dimension>
   <field type="string">element</field>
   <field type="int">atomtype</field>
   <set>
    <rc><c>Na</c><c>   1</c></rc>
    <rc><c>Na</c><c>   1</c></rc>
   </set>
  </array>
  <array name="atomtypes" >
   <dimension dim="1">type</dimension>
   <field type="int">atomspertype</field>
   <field type="string">element</field>
   <field>mass</field>
   <field>valence</field>
   <field type="string">pseudopotential</field>
   <set>
    <rc><c>   2</c><c>Na</c><c>     22.99000000</c><c>      1.00000000</c><c>  PAW_PBE Na 08Apr2002                  </c></rc>
   </set>
  </array>
 </atominfo>
 <structure name="initialpos" >
  <crystal>
   <varray name="basis" >
    <v>       4.28200006       0.00000000       0.00000000 </v>
    <v>       0.00000000       4.28200006       0.00000000 </v>
    <v>       0.00000000       0.00000000       4.28200006 </v>
   </varray>
   <i name="volume">     78.51271733 </i>
   <varray name="rec_basis" >
    <v>       0.23353573       0.00000000       0.00000000 </v>
    <v>       0.00000000       0.23353573       0.00000000 </v>
    <v>       0.00000000       0.00000000       0.23353573 </v>
   </varray>
  </crystal>
  <varray name="positions" >
   <v>       0.00000000       0.00000000       0.00000000 </v>
   <v>       0.50000000       0.50000000       0.50000000 </v>
  </varray>
 </structure>
 <calculation>
  <scstep>
   <time name="dav">    1.06    1.07</time>
   <time name="total">    1.23    1.59</time>
   <energy>
    <i name="alphaZ">     -0.93315053 </i>
    <i name="ewald">    -12.23825003 </i>
    <i name="hartreedc">     -0.00981620 </i>
    <i name="XCdc">    -74.18036478 </i>
    <i name="pawpsdc">     76.00150388 </i>
    <i name="pawaedc">     -0.97841282 </i>
    <i name="eentropy">     -0.00095810 </i>
    <i name="bandstr">     -0.25305538 </i>
    <i name="atom">     10.31613858 </i>
    <i name="e_fr_energy">     -2.27636539 </i>
    <i name="e_wo_entrp">     -2.27540729 </i>
    <i name="e_0_energy">     -2.27604602 </i>
   </energy>
  </scstep>
  <scstep>
   <time name="dav">    1.00    1.00</time>
   <time name="total">    1.16    1.17</time>
   <energy>
    <i name="e_fr_energy">     -2.60818359 </i>
    <i name="e_wo_entrp">     -2.60727900 </i>
    <i name="e_0_energy">     -2.60788206 </i>
   </energy>
  </scstep>
  <scstep>
   <time name="dav">    1.07    1.07</time>
   <time name="total">    1.24    1.24</time>
   <energy>
    <i name="e_fr_energy">     -2.60704178 </i>
    <i name="e_wo_entrp">     -2.60613326 </i>
    <i name="e_0_energy">     -2.60673894 </i>
   </energy>
  </scstep>
  <scstep>
   <time name="dav">    0.91    0.91</time>
   <time name="total">    1.07    1.07</time>
   <energy>
    <i name="e_fr_energy">     -2.60634644 </i>
    <i name="e_wo_entrp">     -2.60543682 </i>
    <i name="e_0_energy">     -2.60604323 </i>
   </energy>
  </scstep>
  <scstep>
   <time name="dav">    0.74    0.74</time>
   <time name="total">    0.80    0.80</time>
   <energy>
    <i name="alphaZ">     -0.93315053 </i>
    <i name="ewald">    -12.23825003 </i>
    <i name="hartreedc">     -0.02645708 </i>
    <i name="XCdc">    -73.05149168 </i>
    <i name="pawpsdc">     78.66404642 </i>
    <i name="pawaedc">     -3.65087408 </i>
    <i name="eentropy">     -0.00090961 </i>
    <i name="bandstr">     -1.68538710 </i>
    <i name="atom">     10.31613858 </i>
    <i name="e_fr_energy">     -2.60633511 </i>
    <i name="e_wo_entrp">     -2.60542549 </i>
    <i name="e_0_energy">     -2.60603190 </i>
   </energy>
  </scstep>
  <structure>
   <crystal>
    <varray name="basis" >
     <v>       4.28200006       0.00000000       0.00000000 </v>
     <v>       0.00000000       4.28200006       0.00000000 </v>
     <v>       0.00000000       0.00000000       4.28200006 </v>
    </varray>
    <i name="volume">     78.51271733 </i>
    <varray name="rec_basis" >
     <v>       0.23353573       0.00000000       0.00000000 </v>
     <v>       0.00000000       0.23353573       0.00000000 </v>
     <v>       0.00000000       0.00000000       0.23353573 </v>
    </varray>
   </crystal>
   <varray name="positions" >
    <v>       0.00000000       0.00000000       0.00000000 </v>
    <v>       0.50000000       0.50000000       0.50000000 </v>
   </varray>
  </structure>
  <varray name="forces" >
   <v>       0.00000000       0.00000000       0.00000000 </v>
   <v>      -0.00000000      -0.00000000      -0.00000000 </v>
  </varray>
  <varray name="stress" >
   <v>      -4.41718739       0.00000000       0.00000000 </v>
   <v>       0.00000000      -4.41718739       0.00000000 </v>
   <v>      -0.00000000       0.00000000      -4.41718739 </v>
  </varray>
  <energy>
   <i name="e_fr_energy">     -2.60633511 </i>
   <i name="e_wo_entrp">     -2.60542549 </i>
   <i name="e_0_energy">     -2.60603190 </i>
  </energy>
  <time name="totalsc">    6.52   10.78</time>
 </calculation>
 <calculation>
  <scstep>
   <time name="dav">    1.68    1.71</time>
   <time name="total">    1.96    1.99</time>
   <energy>
    <i name="alphaZ">     -0.94792121 </i>
    <i name="ewald">    -12.30248467 </i>
    <i name="hartreedc">     -0.02669396 </i>
    <i name="XCdc">    -73.04599380 </i>
    <i name="pawpsdc">     78.58703511 </i>
    <i name="pawaedc">     -3.57365057 </i>
    <i name="eentropy">     -0.00089825 </i>
    <i name="bandstr">     -1.61484956 </i>
    <i name="atom">     10.31613858 </i>
    <i name="e_fr_energy">     -2.60931832 </i>
    <i name="e_wo_entrp">     -2.60842006 </i>
    <i name="e_0_energy">     -2.60901890 </i>
   </energy>
  </scstep>
  <scstep>
   <time name="dav">    0.99    0.99</time>
   <time name="total">    1.07    1.08</time>
   <energy>
    <i name="alphaZ">     -0.94792121 </i>
    <i name="ewald">    -12.30248467 </i>
    <i name="hartreedc">     -0.02699929 </i>
    <i name="XCdc">    -73.04481629 </i>
    <i name="pawpsdc">     78.64157932 </i>
    <i name="pawaedc">     -3.62835201 </i>
    <i name="eentropy">     -0.00089822 </i>
    <i name="bandstr">     -1.61556659 </i>
    <i name="atom">     10.31613858 </i>
    <i name="e_fr_energy">     -2.60932037 </i>
    <i name="e_wo_entrp">     -2.60842215 </i>
    <i name="e_0_energy">     -2.60902096 </i>
   </energy>
  </scstep>
  <structure>
   <crystal>
    <varray name="basis" >
     <v>       4.25964257       0.00000000       0.00000000 </v>
     <v>       0.00000000       4.25964257       0.00000000 </v>
     <v>      -0.00000000       0.00000000       4.25964257 </v>
    </varray>
    <i name="volume">     77.28931820 </i>
    <varray name="rec_basis" >
     <v>       0.23476148      -0.00000000       0.00000000 </v>
     <v>      -0.00000000       0.23476148      -0.00000000 </v>
     <v>      -0.00000000      -0.00000000       0.23476148 </v>
    </varray>
   </crystal>
   <varray name="positions" >
    <v>       0.00000000       0.00000000       0.00000000 </v>
    <v>       0.50000000       0.50000000       0.50000000 </v>
   </varray>
  </structure>
  <varray name="forces" >
   <v>      -0.00000000      -0.00000000      -0.00000000 </v>
   <v>       0.00000000       0.00000000       0.00000000 </v>
  </varray>
  <varray name="stress" >
   <v>      -3.42609031      -0.00000000      -0.00000000 </v>
   <v>      -0.00000000      -3.42609031      -0.00000000 </v>
   <v>       0.00000000       0.00000000      -3.42609031 </v>
  </varray>
  <energy>
   <i name="e_fr_energy">     -2.60932037 </i>
   <i name="e_wo_entrp">     -2.60842215 </i>
   <i name="e_0_energy">     -2.60902096 </i>
  </energy>
  <time name="totalsc">    4.26    7.48</time>
 </calculation>
 <calculation>
  <scstep>
   <time name="dav">    1.12    1.13</time>
   <time name="total">    1.37    1.39</time>
   <energy>
    <i name="alphaZ">     -0.99414726 </i>
    <i name="ewald">    -12.49929907 </i>
    <i name="hartreedc">     -0.02805915 </i>
    <i name="XCdc">    -73.02677009 </i>
    <i name="pawpsdc">     78.69732754 </i>
    <i name="pawaedc">     -3.68435860 </i>
    <i name="eentropy">     -0.00086344 </i>
    <i name="bandstr">     -1.39319889 </i>
    <i name="atom">     10.31613858 </i>
    <i name="e_fr_energy">     -2.61323038 </i>
    <i name="e_wo_entrp">     -2.61236694 </i>
    <i name="e_0_energy">     -2.61294257 </i>
   </energy>
  </scstep>
  <scstep>
   <time name="dav">    1.29    1.31</time>
   <time name="total">    1.38    1.39</time>
   <energy>
    <i name="alphaZ">     -0.99414726 </i>
    <i name="ewald">    -12.49929907 </i>
    <i name="hartreedc">     -0.02900504 </i>
    <i name="XCdc">    -73.02318666 </i>
    <i name="pawpsdc">     78.85100803 </i>
    <i name="pawaedc">     -3.83850010 </i>
    <i name="eentropy">     -0.00086350 </i>
    <i name="bandstr">     -1.39539608 </i>
    <i name="atom">     10.31613858 </i>
    <i name="e_fr_energy">     -2.61325110 </i>
    <i name="e_wo_entrp">     -2.61238760 </i>
    <i name="e_0_energy">     -2.61296327 </i>
   </energy>
  </scstep>
  <structure>
   <crystal>
    <varray name="basis" >
     <v>       4.19257009       0.00000000       0.00000000 </v>
     <v>       0.00000000       4.19257009       0.00000000 </v>
     <v>      -0.00000000       0.00000000       4.19257009 </v>
    </varray>
    <i name="volume">     73.69550432 </i>
    <varray name="rec_basis" >
     <v>       0.23851718      -0.00000000       0.00000000 </v>
     <v>      -0.00000000       0.23851718      -0.00000000 </v>
     <v>      -0.00000000      -0.00000000       0.23851718 </v>
    </varray>
   </crystal>
   <varray name="positions" >
    <v>       0.00000000       0.00000000       0.00000000 </v>
    <v>       0.50000000       0.50000000       0.50000000 </v>
   </varray>
  </structure>
  <varray name="forces" >
   <v>      -0.00000000      -0.00000000      -0.00000000 </v>
   <v>       0.00000000       0.00000000       0.00000000 </v>
  </varray>
  <varray name="stress" >
   <v>      -0.04182766       0.00000000       0.00000000 </v>
   <v>      -0.00000000      -0.04182766       0.00000000 </v>
   <v>       0.00000000       0.00000000      -0.04182766 </v>
  </varray>
  <energy>
   <i name="e_fr_energy">     -2.61325110 </i>
   <i name="e_wo_entrp">     -2.61238760 </i>
   <i name="e_0_energy">     -2.61296327 </i>
  </energy>
  <time name="totalsc">    3.68    5.24</time>
  <eigenvalues>
   <array>
    <dimension dim="1">band</dimension>
    <dimension dim="2">kpoint</dimension>
    <dimension dim="3">spin</dimension>
    <field>eigene</field>
    <field>occ</field>
    <set>
     <set comment="spin 1">
      <set comment="kpoint 1">
       <r>   -2.6912    1.0000 </r>
       <r>    5.1277   -0.0000 </r>
       <r>    5.1277   -0.0000 </r>
       <r>    5.5033   -0.0000 </r>
       <r>    5.5033   -0.0000 </r>
      </set>
      <set comment="kpoint 2">
       <r>   -2.6392    1.0000 </r>
       <r>    4.2833   -0.0000 </r>
       <r>    5.1782   -0.0000 </r>
       <r>    5.5465   -0.0000 </r>
       <r>    5.5465   -0.0000 </r>
      </set>
      <set comment="kpoint 3">
       <r>   -2.4836    1.0000 </r>
       <r>    3.2708   -0.0000 </r>
       <r>    5.3296   -0.0000 </r>
       <r>    5.6763   -0.0000 </r>
       <r>    5.6763   -0.0000 </r>
      </set>
      <set comment="kpoint 4">
       <r>   -2.2248    1.0000 </r>
       <r>    2.2958   -0.0000 </r>
       <r>    5.5818   -0.0000 </r>
       <r>    5.8929   -0.0000 </r>
       <r>    5.8929   -0.0000 </r>
      </set>
      <set comment="kpoint 5">
       <r>   -1.8642    1.0000 </r>
       <r>    1.3861   -0.0000 </r>
       <r>    5.9350   -0.0000 </r>
       <r>    6.1968    0.0000 </r>
       <r>    6.1968    0.0000 </r>
      </set>
      <set comment="kpoint 6">
       <r>   -1.4034    1.0000 </r>
       <r>    0.5547    0.7288 </r>
       <r>    6.3890    0.0000 </r>
       <r>    6.5886    0.0000 </r>
       <r>    6.5886    0.0000 </r>
      </set>
      <set comment="kpoint 7">
       <r>   -0.8446    1.0000 </r>
       <r>   -0.1906    1.0000 </r>
       <r>    6.9438    0.0000 </r>
       <r>    7.0688    0.0000 </r>
       <r>    7.0688    0.0000 </r>
      </set>
      <set comment="kpoint 8">
       <r>   -2.5873    1.0000 </r>
       <r>    4.1723   -0.0000 </r>
       <r>    4.5480   -0.0000 </r>
       <r>    5.5898   -0.0000 </r>
       <r>    5.8938   -0.0000 </r>
      </set>
      <set comment="kpoint 9">
       <r>   -2.4317    1.0000 </r>
       <r>    3.3020   -0.0000 </r>
       <r>    4.5562   -0.0000 </r>
       <r>    5.7195   -0.0000 </r>
       <r>    6.0972    0.0000 </r>
      </set>
      <set comment="kpoint 10">
       <r>   -2.1732    1.0000 </r>
       <r>    2.3398   -0.0000 </r>
       <r>    4.7818   -0.0000 </r>
       <r>    5.9361   -0.0000 </r>
       <r>    6.3539    0.0000 </r>
      </set>
      <set comment="kpoint 11">
       <r>   -1.8129    1.0000 </r>
       <r>    1.4336   -0.0000 </r>
       <r>    5.1100   -0.0000 </r>
       <r>    6.2399    0.0000 </r>
       <r>    6.6996    0.0000 </r>
      </set>
      <set comment="kpoint 12">
       <r>   -1.3524    1.0000 </r>
       <r>    0.6037    0.5315 </r>
       <r>    5.5340   -0.0000 </r>
       <r>    6.6316    0.0000 </r>
       <r>    7.1388    0.0000 </r>
      </set>
      <set comment="kpoint 13">
       <r>   -0.7940    1.0000 </r>
       <r>   -0.1407    1.0000 </r>
       <r>    6.0518   -0.0000 </r>
       <r>    6.6620    0.0000 </r>
       <r>    7.1117    0.0000 </r>
      </set>
      <set comment="kpoint 14">
       <r>   -2.2765    1.0000 </r>
       <r>    3.2411   -0.0000 </r>
       <r>    3.7549   -0.0000 </r>
       <r>    5.8492   -0.0000 </r>
       <r>    6.3699    0.0000 </r>
      </set>
      <set comment="kpoint 15">
       <r>   -2.0185    1.0000 </r>
       <r>    2.4617   -0.0000 </r>
       <r>    3.7977   -0.0000 </r>
       <r>    6.0657   -0.0000 </r>
       <r>    6.6572    0.0000 </r>
      </set>
      <set comment="kpoint 16">
       <r>   -1.6590    1.0000 </r>
       <r>    1.5744   -0.0000 </r>
       <r>    4.1084   -0.0000 </r>
       <r>    6.3693    0.0000 </r>
       <r>    7.0244    0.0000 </r>
      </set>
      <set comment="kpoint 17">
       <r>   -1.1997    1.0000 </r>
       <r>    0.7503    0.0417 </r>
       <r>    4.5291   -0.0000 </r>
       <r>    6.7606    0.0000 </r>
       <r>    7.4819    0.0000 </r>
      </set>
      <set comment="kpoint 18">
       <r>   -0.6427    1.0000 </r>
       <r>    0.0088    1.0001 </r>
       <r>    5.0470   -0.0000 </r>
       <r>    5.6586   -0.0000 </r>
       <r>    7.2400    0.0000 </r>
      </set>
      <set comment="kpoint 19">
       <r>   -1.7616    1.0000 </r>
       <r>    2.4945   -0.0000 </r>
       <r>    3.0307   -0.0000 </r>
       <r>    6.2819    0.0000 </r>
       <r>    7.0770    0.0000 </r>
      </set>
      <set comment="kpoint 20">
       <r>   -1.4034    1.0000 </r>
       <r>    1.7965   -0.0000 </r>
       <r>    3.1565   -0.0000 </r>
       <r>    6.1988    0.0000 </r>
       <r>    6.5851    0.0000 </r>
      </set>
      <set comment="kpoint 21">
       <r>   -0.9459    1.0000 </r>
       <r>    0.9916   -0.0108 </r>
       <r>    3.5638   -0.0000 </r>
       <r>    5.4037   -0.0000 </r>
       <r>    6.9755    0.0000 </r>
      </set>
      <set comment="kpoint 22">
       <r>   -0.3914    1.0000 </r>
       <r>    0.2565    1.0155 </r>
       <r>    4.0820   -0.0000 </r>
       <r>    7.4533    0.0000 </r>
       <r>    8.3403    0.0000 </r>
      </set>
      <set comment="kpoint 23">
       <r>   -1.0473    1.0000 </r>
       <r>    1.9350   -0.0000 </r>
       <r>    2.4520   -0.0000 </r>
       <r>    6.8873    0.0000 </r>
       <r>    7.7066    0.0000 </r>
      </set>
      <set comment="kpoint 24">
       <r>   -0.5925    1.0000 </r>
       <r>    1.3164   -0.0000 </r>
       <r>    2.6805   -0.0000 </r>
       <r>    7.2758    0.0000 </r>
       <r>    8.1637    0.0000 </r>
      </set>
      <set comment="kpoint 25">
       <r>   -0.0419    1.0000 </r>
       <r>    0.5995    0.5495 </r>
       <r>    3.1887   -0.0000 </r>
       <r>    3.8055   -0.0000 </r>
       <r>    7.7499    0.0000 </r>
      </set>
      <set comment="kpoint 26">
       <r>   -0.1417    1.0000 </r>
       <r>    1.5624   -0.0000 </r>
       <r>    2.0529   -0.0000 </r>
       <r>    3.7123   -0.0000 </r>
       <r>    7.6603    0.0000 </r>
      </set>
      <set comment="kpoint 27">
       <r>    0.4023    1.0291 </r>
       <r>    1.0264   -0.0062 </r>
       <r>    2.3894   -0.0000 </r>
       <r>    2.9984   -0.0000 </r>
       <r>    8.1241    0.0000 </r>
      </set>
      <set comment="kpoint 28">
       <r>    0.9294   -0.0235 </r>
       <r>    1.3762   -0.0000 </r>
       <r>    1.8499   -0.0000 </r>
       <r>    2.2916   -0.0000 </r>
       <r>    8.5516    0.0000 </r>
      </set>
      <set comment="kpoint 29">
       <r>   -2.5354    1.0000 </r>
       <r>    4.2196   -0.0000 </r>
       <r>    4.2196   -0.0000 </r>
       <r>    5.1123   -0.0000 </r>
       <r>    6.6965    0.0000 </r>
      </set>
      <set comment="kpoint 30">
       <r>   -2.3800    1.0000 </r>
       <r>    3.3358   -0.0000 </r>
       <r>    4.3613   -0.0000 </r>
       <r>    5.1174   -0.0000 </r>
       <r>    6.8360    0.0000 </r>
      </set>
      <set comment="kpoint 31">
       <r>   -2.1216    1.0000 </r>
       <r>    2.3839   -0.0000 </r>
       <r>    4.5974   -0.0000 </r>
       <r>    5.3229   -0.0000 </r>
       <r>    7.0689    0.0000 </r>
      </set>
      <set comment="kpoint 32">
       <r>   -1.7615    1.0000 </r>
       <r>    1.4811   -0.0000 </r>
       <r>    4.9279   -0.0000 </r>
       <r>    5.6378   -0.0000 </r>
       <r>    7.3956    0.0000 </r>
      </set>
      <set comment="kpoint 33">
       <r>   -1.3014    1.0000 </r>
       <r>    0.6527    0.3283 </r>
       <r>    5.3525   -0.0000 </r>
       <r>    6.0476   -0.0000 </r>
       <r>    7.1892    0.0000 </r>
      </set>
      <set comment="kpoint 34">
       <r>   -0.7435    1.0000 </r>
       <r>   -0.0908    1.0000 </r>
       <r>    5.8711   -0.0000 </r>
       <r>    6.4835    0.0000 </r>
       <r>    6.5473    0.0000 </r>
      </set>
      <set comment="kpoint 35">
       <r>   -2.2248    1.0000 </r>
       <r>    3.2879   -0.0000 </r>
       <r>    3.7350   -0.0000 </r>
       <r>    5.0461   -0.0000 </r>
       <r>    7.2676    0.0000 </r>
      </set>
      <set comment="kpoint 36">
       <r>   -1.9671    1.0000 </r>
       <r>    2.5062   -0.0000 </r>
       <r>    3.8071   -0.0000 </r>
       <r>    5.2444   -0.0000 </r>
       <r>    7.5524    0.0000 </r>
      </set>
      <set comment="kpoint 37">
       <r>   -1.6078    1.0000 </r>
       <r>    1.6216   -0.0000 </r>
       <r>    4.1215   -0.0000 </r>
       <r>    5.5605   -0.0000 </r>
       <r>    7.1658    0.0000 </r>
      </set>
      <set comment="kpoint 38">
       <r>   -1.1488    1.0000 </r>
       <r>    0.7991   -0.0176 </r>
       <r>    4.5423   -0.0000 </r>
       <r>    5.9740   -0.0000 </r>
       <r>    6.3737    0.0000 </r>
      </set>
      <set comment="kpoint 39">
       <r>   -0.5923    1.0000 </r>
       <r>    0.0585    1.0003 </r>
       <r>    5.0597   -0.0000 </r>
       <r>    5.6708   -0.0000 </r>
       <r>    6.4785    0.0000 </r>
      </set>
      <set comment="kpoint 40">
       <r>   -1.7103    1.0000 </r>
       <r>    2.5411   -0.0000 </r>
       <r>    3.0634   -0.0000 </r>
       <r>    5.4429   -0.0000 </r>
       <r>    7.1071    0.0000 </r>
      </set>
      <set comment="kpoint 41">
       <r>   -1.3524    1.0000 </r>
       <r>    1.8434   -0.0000 </r>
       <r>    3.1949   -0.0000 </r>
       <r>    5.7582   -0.0000 </r>
       <r>    6.2329    0.0000 </r>
      </set>
      <set comment="kpoint 42">
       <r>   -0.8953    1.0000 </r>
       <r>    1.0400   -0.0049 </r>
       <r>    3.6024   -0.0000 </r>
       <r>    5.4395   -0.0000 </r>
       <r>    6.1701    0.0000 </r>
      </set>
      <set comment="kpoint 43">
       <r>   -0.3413    1.0000 </r>
       <r>    0.3059    1.0265 </r>
       <r>    4.1199   -0.0000 </r>
       <r>    4.7339   -0.0000 </r>
       <r>    6.6719    0.0000 </r>
      </set>
      <set comment="kpoint 44">
       <r>   -0.9966    1.0000 </r>
       <r>    1.9815   -0.0000 </r>
       <r>    2.4968   -0.0000 </r>
       <r>    5.3563   -0.0000 </r>
       <r>    6.0710    0.0000 </r>
      </set>
      <set comment="kpoint 45">
       <r>   -0.5422    1.0000 </r>
       <r>    1.3642   -0.0000 </r>
       <r>    2.7258   -0.0000 </r>
       <r>    4.5589   -0.0000 </r>
       <r>    6.4786    0.0000 </r>
      </set>
      <set comment="kpoint 46">
       <r>    0.0078    1.0001 </r>
       <r>    0.6484    0.3454 </r>
       <r>    3.2333   -0.0000 </r>
       <r>    3.8491   -0.0000 </r>
       <r>    6.9730    0.0000 </r>
      </set>
      <set comment="kpoint 47">
       <r>   -0.0919    1.0000 </r>
       <r>    1.6088   -0.0000 </r>
       <r>    2.1015   -0.0000 </r>
       <r>    3.7571   -0.0000 </r>
       <r>    6.8782    0.0000 </r>
      </set>
      <set comment="kpoint 48">
       <r>    0.4515    0.9896 </r>
       <r>    1.0746   -0.0025 </r>
       <r>    2.4368   -0.0000 </r>
       <r>    3.0447   -0.0000 </r>
       <r>    7.3557    0.0000 </r>
      </set>
      <set comment="kpoint 49">
       <r>    0.9777   -0.0132 </r>
       <r>    1.4226   -0.0000 </r>
       <r>    1.8998   -0.0000 </r>
       <r>    2.3395   -0.0000 </r>
       <r>    7.7822    0.0000 </r>
      </set>
      <set comment="kpoint 50">
       <r>   -2.0701    1.0000 </r>
       <r>    3.4285   -0.0000 </r>
       <r>    3.4285   -0.0000 </r>
       <r>    4.4517   -0.0000 </r>
       <r>    8.9141    0.0000 </r>
      </set>
      <set comment="kpoint 51">
       <r>   -1.8129    1.0000 </r>
       <r>    2.6317   -0.0000 </r>
       <r>    3.6629   -0.0000 </r>
       <r>    4.4997   -0.0000 </r>
       <r>    7.9336    0.0000 </r>
      </set>
      <set comment="kpoint 52">
       <r>   -1.4545    1.0000 </r>
       <r>    1.7615   -0.0000 </r>
       <r>    3.9911   -0.0000 </r>
       <r>    4.7905   -0.0000 </r>
       <r>    7.0425    0.0000 </r>
      </set>
      <set comment="kpoint 53">
       <r>   -0.9966    1.0000 </r>
       <r>    0.9448   -0.0200 </r>
       <r>    4.4132   -0.0000 </r>
       <r>    5.2031   -0.0000 </r>
       <r>    6.9836    0.0000 </r>
      </set>
      <set comment="kpoint 54">
       <r>   -0.4416    1.0000 </r>
       <r>    0.2072    1.0075 </r>
       <r>    4.9294   -0.0000 </r>
       <r>    5.7134   -0.0000 </r>
       <r>    6.3105    0.0000 </r>
      </set>
      <set comment="kpoint 55">
       <r>   -1.5567    1.0000 </r>
       <r>    2.6812   -0.0000 </r>
       <r>    3.1229   -0.0000 </r>
       <r>    4.4759   -0.0000 </r>
       <r>    7.1775    0.0000 </r>
      </set>
      <set comment="kpoint 56">
       <r>   -1.1997    1.0000 </r>
       <r>    1.9827   -0.0000 </r>
       <r>    3.2893   -0.0000 </r>
       <r>    4.7597   -0.0000 </r>
       <r>    6.3182    0.0000 </r>
      </set>
      <set comment="kpoint 57">
       <r>   -0.7437    1.0000 </r>
       <r>    1.1847   -0.0002 </r>
       <r>    3.6992   -0.0000 </r>
       <r>    5.1699   -0.0000 </r>
       <r>    5.5288   -0.0000 </r>
      </set>
      <set comment="kpoint 58">
       <r>   -0.1913    1.0000 </r>
       <r>    0.4538    0.9866 </r>
       <r>    4.2149   -0.0000 </r>
       <r>    4.8261   -0.0000 </r>
       <r>    5.6778   -0.0000 </r>
      </set>
      <set comment="kpoint 59">
       <r>   -0.8448    1.0000 </r>
       <r>    2.1212   -0.0000 </r>
       <r>    2.6236   -0.0000 </r>
       <r>    5.0419   -0.0000 </r>
       <r>    5.4697   -0.0000 </r>
      </set>
      <set comment="kpoint 60">
       <r>   -0.3917    1.0000 </r>
       <r>    1.5070   -0.0000 </r>
       <r>    2.8574   -0.0000 </r>
       <r>    4.6810   -0.0000 </r>
       <r>    5.4474   -0.0000 </r>
      </set>
      <set comment="kpoint 61">
       <r>    0.1567    1.0030 </r>
       <r>    0.7949   -0.0145 </r>
       <r>    3.3630   -0.0000 </r>
       <r>    3.9757   -0.0000 </r>
       <r>    5.9467   -0.0000 </r>
      </set>
      <set comment="kpoint 62">
       <r>    0.0573    1.0003 </r>
       <r>    1.7483   -0.0000 </r>
       <r>    2.2447   -0.0000 </r>
       <r>    3.8892   -0.0000 </r>
       <r>    5.8437   -0.0000 </r>
      </set>
      <set comment="kpoint 63">
       <r>    0.5988    0.5524 </r>
       <r>    1.2188   -0.0001 </r>
       <r>    2.5775   -0.0000 </r>
       <r>    3.1818   -0.0000 </r>
       <r>    6.3238    0.0000 </r>
      </set>
      <set comment="kpoint 64">
       <r>    1.1223   -0.0009 </r>
       <r>    1.5620   -0.0000 </r>
       <r>    2.0479   -0.0000 </r>
       <r>    2.4823   -0.0000 </r>
       <r>    6.7471    0.0000 </r>
      </set>
      <set comment="kpoint 65">
       <r>   -1.3015    1.0000 </r>
       <r>    2.9147   -0.0000 </r>
       <r>    2.9147   -0.0000 </r>
       <r>    3.9362   -0.0000 </r>
       <r>    7.1773    0.0000 </r>
      </set>
      <set comment="kpoint 66">
       <r>   -0.9460    1.0000 </r>
       <r>    2.2048   -0.0000 </r>
       <r>    3.2417   -0.0000 </r>
       <r>    4.0731   -0.0000 </r>
       <r>    6.8277    0.0000 </r>
      </set>
      <set comment="kpoint 67">
       <r>   -0.4920    1.0000 </r>
       <r>    1.4228   -0.0000 </r>
       <r>    3.6626   -0.0000 </r>
       <r>    4.4604   -0.0000 </r>
       <r>    6.2049    0.0000 </r>
      </set>
      <set comment="kpoint 68">
       <r>    0.0577    1.0003 </r>
       <r>    0.6988    0.1657 </r>
       <r>    4.1774   -0.0000 </r>
       <r>    4.9659   -0.0000 </r>
       <r>    5.5574   -0.0000 </r>
      </set>
      <set comment="kpoint 69">
       <r>   -0.5926    1.0000 </r>
       <r>    2.3542   -0.0000 </r>
       <r>    2.7850   -0.0000 </r>
       <r>    4.1379   -0.0000 </r>
       <r>    5.6290   -0.0000 </r>
      </set>
      <set comment="kpoint 70">
       <r>   -0.1416    1.0000 </r>
       <r>    1.7426   -0.0000 </r>
       <r>    3.0488   -0.0000 </r>
       <r>    4.5146   -0.0000 </r>
       <r>    4.8598   -0.0000 </r>
      </set>
      <set comment="kpoint 71">
       <r>    0.4038    1.0285 </r>
       <r>    1.0376   -0.0051 </r>
       <r>    3.5538   -0.0000 </r>
       <r>    4.1618   -0.0000 </r>
       <r>    5.0108   -0.0000 </r>
      </set>
      <set comment="kpoint 72">
       <r>    0.3050    1.0263 </r>
       <r>    1.9809   -0.0000 </r>
       <r>    2.4711   -0.0000 </r>
       <r>    4.0996   -0.0000 </r>
       <r>    4.8825   -0.0000 </r>
      </set>
      <set comment="kpoint 73">
       <r>    0.8430   -0.0347 </r>
       <r>    1.4578   -0.0000 </r>
       <r>    2.8044   -0.0000 </r>
       <r>    3.4028   -0.0000 </r>
       <r>    5.3585   -0.0000 </r>
      </set>
      <set comment="kpoint 74">
       <r>    1.3622   -0.0000 </r>
       <r>    1.7945   -0.0000 </r>
       <r>    2.2886   -0.0000 </r>
       <r>    2.7154   -0.0000 </r>
       <r>    5.7752   -0.0000 </r>
      </set>
      <set comment="kpoint 75">
       <r>   -0.2415    1.0000 </r>
       <r>    2.6805   -0.0000 </r>
       <r>    2.6805   -0.0000 </r>
       <r>    3.6766   -0.0000 </r>
       <r>    5.7210   -0.0000 </r>
      </set>
      <set comment="kpoint 76">
       <r>    0.2063    1.0074 </r>
       <r>    2.0609   -0.0000 </r>
       <r>    3.1005   -0.0000 </r>
       <r>    3.9079   -0.0000 </r>
       <r>    5.4683   -0.0000 </r>
      </set>
      <set comment="kpoint 77">
       <r>    0.7470    0.0476 </r>
       <r>    1.3730   -0.0000 </r>
       <r>    3.6144   -0.0000 </r>
       <r>    4.3779   -0.0000 </r>
       <r>    4.9335   -0.0000 </r>
      </set>
      <set comment="kpoint 78">
       <r>    0.6493    0.3418 </r>
       <r>    2.3069   -0.0000 </r>
       <r>    2.7320   -0.0000 </r>
       <r>    4.0621   -0.0000 </r>
       <r>    4.3583   -0.0000 </r>
      </set>
      <set comment="kpoint 79">
       <r>    1.1821   -0.0002 </r>
       <r>    1.7886   -0.0000 </r>
       <r>    3.0900   -0.0000 </r>
       <r>    3.6828   -0.0000 </r>
       <r>    4.5082   -0.0000 </r>
      </set>
      <set comment="kpoint 80">
       <r>    1.6951   -0.0000 </r>
       <r>    2.1202   -0.0000 </r>
       <r>    2.6073   -0.0000 </r>
       <r>    3.0271   -0.0000 </r>
       <r>    4.8963   -0.0000 </r>
      </set>
      <set comment="kpoint 81">
       <r>    1.0871   -0.0019 </r>
       <r>    2.7263   -0.0000 </r>
       <r>    2.7263   -0.0000 </r>
       <r>    3.6800   -0.0000 </r>
       <r>    4.5486   -0.0000 </r>
      </set>
      <set comment="kpoint 82">
       <r>    1.6115   -0.0000 </r>
       <r>    2.2006   -0.0000 </r>
       <r>    3.2396   -0.0000 </r>
       <r>    3.9684   -0.0000 </r>
       <r>    4.3879   -0.0000 </r>
      </set>
      <set comment="kpoint 83">
       <r>    2.1165   -0.0000 </r>
       <r>    2.5394   -0.0000 </r>
       <r>    2.9544   -0.0000 </r>
       <r>    3.3824   -0.0000 </r>
       <r>    4.1417   -0.0000 </r>
      </set>
      <set comment="kpoint 84">
       <r>    2.6095   -0.0000 </r>
       <r>    3.0524   -0.0000 </r>
       <r>    3.0524   -0.0000 </r>
       <r>    3.6595   -0.0000 </r>
       <r>    3.7122   -0.0000 </r>
      </set>
     </set>
    </set>
   </array>
  </eigenvalues>
  <separator name="orbital magnetization" >
   <v name="MAGDIPOLOUT">      0.00000000      0.00000000      0.00000000</v>
  </separator>
  <dos>
   <i name="efermi">      0.61117913 </i>
   <total>
    <array>
     <dimension dim="1">gridpoints</dimension>
     <dimension dim="2">spin</dimension>
     <field>energy</field>
     <field>total</field>
     <field>integrated</field>
     <set>
      <set comment="spin 1">
       <r>    -4.6912     0.0000     0.0000 </r>
       <r>    -4.6392     0.0000     0.0000 </r>
       <r>    -4.5872     0.0000     0.0000 </r>
       <r>    -4.5352     0.0000     0.0000 </r>
       <r>    -4.4831     0.0000     0.0000 </r>
       <r>    -4.4311     0.0000     0.0000 </r>
       <r>    -4.3791     0.0000     0.0000 </r>
       <r>    -4.3271    -0.0000    -0.0000 </r>
       <r>    -4.2751    -0.0000    -0.0000 </r>
       <r>    -4.2231    -0.0000    -0.0000 </r>
       <r>    -4.1710    -0.0000    -0.0000 </r>
       <r>    -4.1190    -0.0000    -0.0000 </r>
       <r>    -4.0670    -0.0000    -0.0000 </r>
       <r>    -4.0150    -0.0000    -0.0000 </r>
       <r>    -3.9630    -0.0000    -0.0000 </r>
       <r>    -3.9109    -0.0000    -0.0000 </r>
       <r>    -3.8589    -0.0000    -0.0000 </r>
       <r>    -3.8069    -0.0000    -0.0000 </r>
       <r>    -3.7549    -0.0000    -0.0000 </r>
       <r>    -3.7029    -0.0000    -0.0000 </r>
       <r>    -3.6509    -0.0000    -0.0000 </r>
       <r>    -3.5988    -0.0000    -0.0000 </r>
       <r>    -3.5468    -0.0000    -0.0000 </r>
       <r>    -3.4948    -0.0000    -0.0000 </r>
       <r>    -3.4428    -0.0000    -0.0000 </r>
       <r>    -3.3908    -0.0000    -0.0000 </r>
       <r>    -3.3388    -0.0000    -0.0000 </r>
       <r>    -3.2867    -0.0000    -0.0000 </r>
       <r>    -3.2347    -0.0000    -0.0000 </r>
       <r>    -3.1827    -0.0001    -0.0000 </r>
       <r>    -3.1307    -0.0002    -0.0000 </r>
       <r>    -3.0787    -0.0006    -0.0001 </r>
       <r>    -3.0266    -0.0015    -0.0001 </r>
       <r>    -2.9746    -0.0031    -0.0003 </r>
       <r>    -2.9226    -0.0050    -0.0005 </r>
       <r>    -2.8706    -0.0059    -0.0009 </r>
       <r>    -2.8186    -0.0032    -0.0010 </r>
       <r>    -2.7666     0.0067    -0.0007 </r>
       <r>    -2.7145     0.0267     0.0007 </r>
       <r>    -2.6625     0.0577     0.0037 </r>
       <r>    -2.6105     0.0973     0.0088 </r>
       <r>    -2.5585     0.1413     0.0161 </r>
       <r>    -2.5065     0.1838     0.0257 </r>
       <r>    -2.4544     0.2197     0.0371 </r>
       <r>    -2.4024     0.2468     0.0500 </r>
       <r>    -2.3504     0.2678     0.0639 </r>
       <r>    -2.2984     0.2889     0.0789 </r>
       <r>    -2.2464     0.3143     0.0953 </r>
       <r>    -2.1944     0.3420     0.1131 </r>
       <r>    -2.1423     0.3656     0.1321 </r>
       <r>    -2.0903     0.3801     0.1518 </r>
       <r>    -2.0383     0.3855     0.1719 </r>
       <r>    -1.9863     0.3867     0.1920 </r>
       <r>    -1.9343     0.3924     0.2124 </r>
       <r>    -1.8823     0.4115     0.2338 </r>
       <r>    -1.8302     0.4467     0.2571 </r>
       <r>    -1.7782     0.4895     0.2825 </r>
       <r>    -1.7262     0.5228     0.3097 </r>
       <r>    -1.6742     0.5308     0.3373 </r>
       <r>    -1.6222     0.5109     0.3639 </r>
       <r>    -1.5701     0.4777     0.3888 </r>
       <r>    -1.5181     0.4576     0.4126 </r>
       <r>    -1.4661     0.4727     0.4371 </r>
       <r>    -1.4141     0.5253     0.4645 </r>
       <r>    -1.3621     0.5943     0.4954 </r>
       <r>    -1.3101     0.6496     0.5292 </r>
       <r>    -1.2580     0.6696     0.5640 </r>
       <r>    -1.2060     0.6517     0.5979 </r>
       <r>    -1.1540     0.6109     0.6297 </r>
       <r>    -1.1020     0.5729     0.6595 </r>
       <r>    -1.0500     0.5620     0.6887 </r>
       <r>    -0.9979     0.5866     0.7192 </r>
       <r>    -0.9459     0.6321     0.7521 </r>
       <r>    -0.8939     0.6717     0.7871 </r>
       <r>    -0.8419     0.6878     0.8228 </r>
       <r>    -0.7899     0.6854     0.8585 </r>
       <r>    -0.7379     0.6860     0.8942 </r>
       <r>    -0.6858     0.7084     0.9310 </r>
       <r>    -0.6338     0.7525     0.9702 </r>
       <r>    -0.5818     0.7984     1.0117 </r>
       <r>    -0.5298     0.8208     1.0544 </r>
       <r>    -0.4778     0.8058     1.0963 </r>
       <r>    -0.4258     0.7565     1.1357 </r>
       <r>    -0.3737     0.6908     1.1716 </r>
       <r>    -0.3217     0.6362     1.2047 </r>
       <r>    -0.2697     0.6230     1.2371 </r>
       <r>    -0.2177     0.6690     1.2719 </r>
       <r>    -0.1657     0.7654     1.3117 </r>
       <r>    -0.1136     0.8780     1.3574 </r>
       <r>    -0.0616     0.9667     1.4077 </r>
       <r>    -0.0096     1.0053     1.4600 </r>
       <r>     0.0424     0.9885     1.5114 </r>
       <r>     0.0944     0.9293     1.5597 </r>
       <r>     0.1464     0.8540     1.6041 </r>
       <r>     0.1985     0.7924     1.6454 </r>
       <r>     0.2505     0.7653     1.6852 </r>
       <r>     0.3025     0.7748     1.7255 </r>
       <r>     0.3545     0.8055     1.7674 </r>
       <r>     0.4065     0.8375     1.8109 </r>
       <r>     0.4586     0.8630     1.8558 </r>
       <r>     0.5106     0.8923     1.9022 </r>
       <r>     0.5626     0.9407     1.9512 </r>
       <r>     0.6146     1.0070     2.0036 </r>
       <r>     0.6666     1.0664     2.0590 </r>
       <r>     0.7186     1.0863     2.1155 </r>
       <r>     0.7707     1.0527     2.1703 </r>
       <r>     0.8227     0.9850     2.2215 </r>
       <r>     0.8747     0.9279     2.2698 </r>
       <r>     0.9267     0.9246     2.3179 </r>
       <r>     0.9787     0.9840     2.3691 </r>
       <r>     1.0308     1.0701     2.4247 </r>
       <r>     1.0828     1.1251     2.4833 </r>
       <r>     1.1348     1.1122     2.5411 </r>
       <r>     1.1868     1.0439     2.5954 </r>
       <r>     1.2388     0.9730     2.6460 </r>
       <r>     1.2908     0.9553     2.6957 </r>
       <r>     1.3429     1.0108     2.7483 </r>
       <r>     1.3949     1.1094     2.8060 </r>
       <r>     1.4469     1.1937     2.8681 </r>
       <r>     1.4989     1.2210     2.9316 </r>
       <r>     1.5509     1.1907     2.9936 </r>
       <r>     1.6029     1.1390     3.0528 </r>
       <r>     1.6550     1.1076     3.1104 </r>
       <r>     1.7070     1.1112     3.1682 </r>
       <r>     1.7590     1.1290     3.2270 </r>
       <r>     1.8110     1.1255     3.2855 </r>
       <r>     1.8630     1.0845     3.3419 </r>
       <r>     1.9151     1.0224     3.3951 </r>
       <r>     1.9671     0.9689     3.4455 </r>
       <r>     2.0191     0.9374     3.4943 </r>
       <r>     2.0711     0.9173     3.5420 </r>
       <r>     2.1231     0.8940     3.5885 </r>
       <r>     2.1751     0.8725     3.6339 </r>
       <r>     2.2272     0.8785     3.6796 </r>
       <r>     2.2792     0.9381     3.7284 </r>
       <r>     2.3312     1.0562     3.7833 </r>
       <r>     2.3832     1.2095     3.8462 </r>
       <r>     2.4352     1.3580     3.9169 </r>
       <r>     2.4873     1.4634     3.9930 </r>
       <r>     2.5393     1.5058     4.0713 </r>
       <r>     2.5913     1.4885     4.1487 </r>
       <r>     2.6433     1.4255     4.2229 </r>
       <r>     2.6953     1.3253     4.2918 </r>
       <r>     2.7473     1.1895     4.3537 </r>
       <r>     2.7994     1.0309     4.4073 </r>
       <r>     2.8514     0.8924     4.4538 </r>
       <r>     2.9034     0.8368     4.4973 </r>
       <r>     2.9554     0.9097     4.5446 </r>
       <r>     3.0074     1.1028     4.6020 </r>
       <r>     3.0594     1.3545     4.6724 </r>
       <r>     3.1115     1.5841     4.7548 </r>
       <r>     3.1635     1.7313     4.8449 </r>
       <r>     3.2155     1.7676     4.9368 </r>
       <r>     3.2675     1.6874     5.0246 </r>
       <r>     3.3195     1.5024     5.1028 </r>
       <r>     3.3716     1.2497     5.1678 </r>
       <r>     3.4236     0.9989     5.2197 </r>
       <r>     3.4756     0.8359     5.2632 </r>
       <r>     3.5276     0.8225     5.3060 </r>
       <r>     3.5796     0.9575     5.3558 </r>
       <r>     3.6316     1.1704     5.4167 </r>
       <r>     3.6837     1.3584     5.4873 </r>
       <r>     3.7357     1.4409     5.5623 </r>
       <r>     3.7877     1.3976     5.6350 </r>
       <r>     3.8397     1.2719     5.7012 </r>
       <r>     3.8917     1.1452     5.7607 </r>
       <r>     3.9438     1.0978     5.8178 </r>
       <r>     3.9958     1.1685     5.8786 </r>
       <r>     4.0478     1.3258     5.9476 </r>
       <r>     4.0998     1.4731     6.0242 </r>
       <r>     4.1518     1.5028     6.1024 </r>
       <r>     4.2038     1.3725     6.1738 </r>
       <r>     4.2559     1.1461     6.2334 </r>
       <r>     4.3079     0.9584     6.2832 </r>
       <r>     4.3599     0.9245     6.3313 </r>
       <r>     4.4119     1.0622     6.3866 </r>
       <r>     4.4639     1.2820     6.4533 </r>
       <r>     4.5159     1.4497     6.5287 </r>
       <r>     4.5680     1.4757     6.6055 </r>
       <r>     4.6200     1.3700     6.6767 </r>
       <r>     4.6720     1.2222     6.7403 </r>
       <r>     4.7240     1.1275     6.7989 </r>
       <r>     4.7760     1.1225     6.8573 </r>
       <r>     4.8281     1.1793     6.9187 </r>
       <r>     4.8801     1.2468     6.9835 </r>
       <r>     4.9321     1.2900     7.0506 </r>
       <r>     4.9841     1.2963     7.1181 </r>
       <r>     5.0361     1.2615     7.1837 </r>
       <r>     5.0881     1.1838     7.2453 </r>
       <r>     5.1402     1.0740     7.3011 </r>
       <r>     5.1922     0.9664     7.3514 </r>
       <r>     5.2442     0.9107     7.3988 </r>
       <r>     5.2962     0.9457     7.4480 </r>
       <r>     5.3482     1.0726     7.5038 </r>
       <r>     5.4003     1.2513     7.5689 </r>
       <r>     5.4523     1.4232     7.6429 </r>
       <r>     5.5043     1.5432     7.7232 </r>
       <r>     5.5563     1.5956     7.8062 </r>
       <r>     5.6083     1.5837     7.8885 </r>
       <r>     5.6603     1.5137     7.9673 </r>
       <r>     5.7124     1.3919     8.0397 </r>
       <r>     5.7644     1.2382     8.1041 </r>
       <r>     5.8164     1.0903     8.1608 </r>
       <r>     5.8684     0.9861     8.2121 </r>
       <r>     5.9204     0.9389     8.2609 </r>
       <r>     5.9724     0.9327     8.3095 </r>
       <r>     6.0245     0.9449     8.3586 </r>
       <r>     6.0765     0.9706     8.4091 </r>
       <r>     6.1285     1.0238     8.4624 </r>
       <r>     6.1805     1.1154     8.5204 </r>
       <r>     6.2325     1.2315     8.5844 </r>
       <r>     6.2846     1.3313     8.6537 </r>
       <r>     6.3366     1.3698     8.7249 </r>
       <r>     6.3886     1.3270     8.7940 </r>
       <r>     6.4406     1.2220     8.8575 </r>
       <r>     6.4926     1.1015     8.9148 </r>
       <r>     6.5446     1.0093     8.9673 </r>
       <r>     6.5967     0.9603     9.0173 </r>
       <r>     6.6487     0.9345     9.0659 </r>
       <r>     6.7007     0.8986     9.1126 </r>
       <r>     6.7527     0.8367     9.1562 </r>
       <r>     6.8047     0.7671     9.1961 </r>
       <r>     6.8568     0.7297     9.2340 </r>
       <r>     6.9088     0.7571     9.2734 </r>
       <r>     6.9608     0.8509     9.3177 </r>
       <r>     7.0128     0.9795     9.3686 </r>
       <r>     7.0648     1.0945     9.4255 </r>
       <r>     7.1168     1.1521     9.4855 </r>
       <r>     7.1689     1.1303     9.5443 </r>
       <r>     7.2209     1.0356     9.5981 </r>
       <r>     7.2729     0.8987     9.6449 </r>
       <r>     7.3249     0.7585     9.6844 </r>
       <r>     7.3769     0.6430     9.7178 </r>
       <r>     7.4289     0.5588     9.7469 </r>
       <r>     7.4810     0.4952     9.7726 </r>
       <r>     7.5330     0.4392     9.7955 </r>
       <r>     7.5850     0.3865     9.8156 </r>
       <r>     7.6370     0.3421     9.8334 </r>
       <r>     7.6890     0.3105     9.8495 </r>
       <r>     7.7411     0.2872     9.8645 </r>
       <r>     7.7931     0.2613     9.8781 </r>
       <r>     7.8451     0.2259     9.8898 </r>
       <r>     7.8971     0.1855     9.8995 </r>
       <r>     7.9491     0.1528     9.9074 </r>
       <r>     8.0011     0.1402     9.9147 </r>
       <r>     8.0532     0.1498     9.9225 </r>
       <r>     8.1052     0.1718     9.9314 </r>
       <r>     8.1572     0.1897     9.9413 </r>
       <r>     8.2092     0.1914     9.9513 </r>
       <r>     8.2612     0.1754     9.9604 </r>
       <r>     8.3133     0.1491     9.9681 </r>
       <r>     8.3653     0.1209     9.9744 </r>
       <r>     8.4173     0.0961     9.9794 </r>
       <r>     8.4693     0.0765     9.9834 </r>
       <r>     8.5213     0.0613     9.9866 </r>
       <r>     8.5733     0.0484     9.9891 </r>
       <r>     8.6254     0.0356     9.9910 </r>
       <r>     8.6774     0.0233     9.9922 </r>
       <r>     8.7294     0.0145     9.9929 </r>
       <r>     8.7814     0.0124     9.9936 </r>
       <r>     8.8334     0.0170     9.9945 </r>
       <r>     8.8855     0.0241     9.9957 </r>
       <r>     8.9375     0.0283     9.9972 </r>
       <r>     8.9895     0.0263     9.9986 </r>
       <r>     9.0415     0.0191     9.9995 </r>
       <r>     9.0935     0.0103    10.0001 </r>
       <r>     9.1455     0.0033    10.0003 </r>
       <r>     9.1976    -0.0005    10.0002 </r>
       <r>     9.2496    -0.0016    10.0001 </r>
       <r>     9.3016    -0.0014    10.0001 </r>
       <r>     9.3536    -0.0008    10.0000 </r>
       <r>     9.4056    -0.0004    10.0000 </r>
       <r>     9.4576    -0.0001    10.0000 </r>
       <r>     9.5097    -0.0000    10.0000 </r>
       <r>     9.5617    -0.0000    10.0000 </r>
       <r>     9.6137    -0.0000    10.0000 </r>
       <r>     9.6657    -0.0000    10.0000 </r>
       <r>     9.7177    -0.0000    10.0000 </r>
       <r>     9.7698    -0.0000    10.0000 </r>
       <r>     9.8218    -0.0000    10.0000 </r>
       <r>     9.8738    -0.0000    10.0000 </r>
       <r>     9.9258    -0.0000    10.0000 </r>
       <r>     9.9778    -0.0000    10.0000 </r>
       <r>    10.0298    -0.0000    10.0000 </r>
       <r>    10.0819    -0.0000    10.0000 </r>
       <r>    10.1339    -0.0000    10.0000 </r>
       <r>    10.1859    -0.0000    10.0000 </r>
       <r>    10.2379     0.0000    10.0000 </r>
       <r>    10.2899     0.0000    10.0000 </r>
       <r>    10.3420     0.0000    10.0000 </r>
       <r>    10.3940     0.0000    10.0000 </r>
       <r>    10.4460     0.0000    10.0000 </r>
       <r>    10.4980     0.0000    10.0000 </r>
       <r>    10.5500     0.0000    10.0000 </r>
       <r>    10.6020     0.0000    10.0000 </r>
       <r>    10.6541     0.0000    10.0000 </r>
       <r>    10.7061     0.0000    10.0000 </r>
       <r>    10.7581     0.0000    10.0000 </r>
       <r>    10.8101     0.0000    10.0000 </r>
       <r>    10.8621     0.0000    10.0000 </r>
       <r>    10.9141     0.0000    10.0000 </r>
      </set>
     </set>
    </array>
   </total>
  </dos>
 </calculation>
 <structure name="finalpos" >
  <crystal>
   <varray name="basis" >
    <v>       4.19257009       0.00000000       0.00000000 </v>
    <v>       0.00000000       4.19257009       0.00000000 </v>
    <v>      -0.00000000       0.00000000       4.19257009 </v>
   </varray>
   <i name="volume">     73.69550432 </i>
   <varray name="rec_basis" >
    <v>       0.23851718      -0.00000000       0.00000000 </v>
    <v>      -0.00000000       0.23851718      -0.00000000 </v>
    <v>      -0.00000000      -0.00000000       0.23851718 </v>
   </varray>
  </crystal>
  <varray name="positions" >
   <v>       0.00000000       0.00000000       0.00000000 </v>
   <v>       0.50000000       0.50000000       0.50000000 </v>
  </varray>
 </structure>
</modeling>
