<?xml version="1.0" encoding="ISO-8859-1"?>
<modeling>
 <generator>
  <i name="program" type="string">vasp </i>
  <i name="version" type="string">6.2.1  </i>
  <i name="subversion" type="string">16May21 (build Dec 20 2021 17:02:34) complex                          parallel </i>
  <i name="platform" type="string">LinuxGNU </i>
  <i name="date" type="string">2025 09 22 </i>
  <i name="time" type="string">12:52:33 </i>
 </generator>
 <incar>
  <i type="int" name="IBRION">     2</i>
  <i type="int" name="NSW">   100</i>
  <i name="ENCUT">    500.00000000</i>
  <i type="logical" name="LVTOT"> T  </i>
  <i type="logical" name="LVHAR"> T  </i>
  <i type="string" name="GGA">PE</i>
 </incar>
 <primitive_cell>
  <structure name="primitive_cell" >
   <crystal>
    <varray name="basis" >
     <v>       2.14100003       2.14100003      -2.14100003 </v>
     <v>      -2.14100003       2.14100003       2.14100003 </v>
     <v>       2.14100003      -2.14100003       2.14100003 </v>
    </varray>
    <i name="volume">     39.25635866 </i>
    <varray name="rec_basis" >
     <v>       0.23353573       0.23353573      -0.00000000 </v>
     <v>       0.00000000       0.23353573       0.23353573 </v>
     <v>       0.23353573      -0.00000000       0.23353573 </v>
    </varray>
   </crystal>
   <varray name="positions" >
    <v>       0.00000000       0.00000000       0.00000000 </v>
   </varray>
  </structure>
  <varray name="primitive_index" >
   <v type="int" >        1 </v>
  </varray>
 </primitive_cell>
 <kpoints>
  <generation param="Monkhorst-Pack">
   <v type="int" name="divisions">      13       13       13 </v>
   <v name="usershift">      0.00000000       0.00000000       0.00000000 </v>
   <v name="genvec1">      0.07692308       0.00000000       0.00000000 </v>
   <v name="genvec2">      0.00000000       0.07692308       0.00000000 </v>
   <v name="genvec3">      0.00000000       0.00000000       0.07692308 </v>
   <v name="shift">      0.00000000       0.00000000       0.00000000 </v>
  </generation>
  <varray name="kpointlist" >
   <v>       0.00000000       0.00000000       0.00000000 </v>
   <v>       0.07692308       0.00000000       0.00000000 </v>
   <v>       0.15384615       0.00000000       0.00000000 </v>
   <v>       0.23076923       0.00000000       0.00000000 </v>
   <v>       0.30769231       0.00000000       0.00000000 </v>
   <v>       0.38461538       0.00000000       0.00000000 </v>
   <v>       0.46153846       0.00000000       0.00000000 </v>
   <v>       0.07692308       0.07692308       0.00000000 </v>
   <v>       0.15384615       0.07692308       0.00000000 </v>
   <v>       0.23076923       0.07692308       0.00000000 </v>
   <v>       0.30769231       0.07692308       0.00000000 </v>
   <v>       0.38461538       0.07692308       0.00000000 </v>
   <v>       0.46153846       0.07692308       0.00000000 </v>
   <v>       0.15384615       0.15384615       0.00000000 </v>
   <v>       0.23076923       0.15384615       0.00000000 </v>
   <v>       0.30769231       0.15384615       0.00000000 </v>
   <v>       0.38461538       0.15384615       0.00000000 </v>
   <v>       0.46153846       0.15384615       0.00000000 </v>
   <v>       0.23076923       0.23076923       0.00000000 </v>
   <v>       0.30769231       0.23076923       0.00000000 </v>
   <v>       0.38461538       0.23076923       0.00000000 </v>
   <v>       0.46153846       0.23076923       0.00000000 </v>
   <v>       0.30769231       0.30769231       0.00000000 </v>
   <v>       0.38461538       0.30769231       0.00000000 </v>
   <v>       0.46153846       0.30769231       0.00000000 </v>
   <v>       0.38461538       0.38461538       0.00000000 </v>
   <v>       0.46153846       0.38461538       0.00000000 </v>
   <v>       0.46153846       0.46153846       0.00000000 </v>
   <v>       0.07692308       0.07692308       0.07692308 </v>
   <v>       0.15384615       0.07692308       0.07692308 </v>
   <v>       0.23076923       0.07692308       0.07692308 </v>
   <v>       0.30769231       0.07692308       0.07692308 </v>
   <v>       0.38461538       0.07692308       0.07692308 </v>
   <v>       0.46153846       0.07692308       0.07692308 </v>
   <v>       0.15384615       0.15384615       0.07692308 </v>
   <v>       0.23076923       0.15384615       0.07692308 </v>
   <v>       0.30769231       0.15384615       0.07692308 </v>
   <v>       0.38461538       0.15384615       0.07692308 </v>
   <v>       0.46153846       0.15384615       0.07692308 </v>
   <v>       0.23076923       0.23076923       0.07692308 </v>
   <v>       0.30769231       0.23076923       0.07692308 </v>
   <v>       0.38461538       0.23076923       0.07692308 </v>
   <v>       0.46153846       0.23076923       0.07692308 </v>
   <v>       0.30769231       0.30769231       0.07692308 </v>
   <v>       0.38461538       0.30769231       0.07692308 </v>
   <v>       0.46153846       0.30769231       0.07692308 </v>
   <v>       0.38461538       0.38461538       0.07692308 </v>
   <v>       0.46153846       0.38461538       0.07692308 </v>
   <v>       0.46153846       0.46153846       0.07692308 </v>
   <v>       0.15384615       0.15384615       0.15384615 </v>
   <v>       0.23076923       0.15384615       0.15384615 </v>
   <v>       0.30769231       0.15384615       0.15384615 </v>
   <v>       0.38461538       0.15384615       0.15384615 </v>
   <v>       0.46153846       0.15384615       0.15384615 </v>
   <v>       0.23076923       0.23076923       0.15384615 </v>
   <v>       0.30769231       0.23076923       0.15384615 </v>
   <v>       0.38461538       0.23076923       0.15384615 </v>
   <v>       0.46153846       0.23076923       0.15384615 </v>
   <v>       0.30769231       0.30769231       0.15384615 </v>
   <v>       0.38461538       0.30769231       0.15384615 </v>
   <v>       0.46153846       0.30769231       0.15384615 </v>
   <v>       0.38461538       0.38461538       0.15384615 </v>
   <v>       0.46153846       0.38461538       0.15384615 </v>
   <v>       0.46153846       0.46153846       0.15384615 </v>
   <v>       0.23076923       0.23076923       0.23076923 </v>
   <v>       0.30769231       0.23076923       0.23076923 </v>
   <v>       0.38461538       0.23076923       0.23076923 </v>
   <v>       0.46153846       0.23076923       0.23076923 </v>
   <v>       0.30769231       0.30769231       0.23076923 </v>
   <v>       0.38461538       0.30769231       0.23076923 </v>
   <v>       0.46153846       0.30769231       0.23076923 </v>
   <v>       0.38461538       0.38461538       0.23076923 </v>
   <v>       0.46153846       0.38461538       0.23076923 </v>
   <v>       0.46153846       0.46153846       0.23076923 </v>
   <v>       0.30769231       0.30769231       0.30769231 </v>
   <v>       0.38461538       0.30769231       0.30769231 </v>
   <v>       0.46153846       0.30769231       0.30769231 </v>
   <v>       0.38461538       0.38461538       0.30769231 </v>
   <v>       0.46153846       0.38461538       0.30769231 </v>
   <v>       0.46153846       0.46153846       0.30769231 </v>
   <v>       0.38461538       0.38461538       0.38461538 </v>
   <v>       0.46153846       0.38461538       0.38461538 </v>
   <v>       0.46153846       0.46153846       0.38461538 </v>
   <v>       0.46153846       0.46153846       0.46153846 </v>
  </varray>
  <varray name="weights" >
   <v>       0.00045517 </v>
   <v>       0.00273100 </v>
   <v>       0.00273100 </v>
   <v>       0.00273100 </v>
   <v>       0.00273100 </v>
   <v>       0.00273100 </v>
   <v>       0.00273100 </v>
   <v>       0.00546199 </v>
   <v>       0.01092399 </v>
   <v>       0.01092399 </v>
   <v>       0.01092399 </v>
   <v>       0.01092399 </v>
   <v>       0.01092399 </v>
   <v>       0.00546199 </v>
   <v>       0.01092399 </v>
   <v>       0.01092399 </v>
   <v>       0.01092399 </v>
   <v>       0.01092399 </v>
   <v>       0.00546199 </v>
   <v>       0.01092399 </v>
   <v>       0.01092399 </v>
   <v>       0.01092399 </v>
   <v>       0.00546199 </v>
   <v>       0.01092399 </v>
   <v>       0.01092399 </v>
   <v>       0.00546199 </v>
   <v>       0.01092399 </v>
   <v>       0.00546199 </v>
   <v>       0.00364133 </v>
   <v>       0.01092399 </v>
   <v>       0.01092399 </v>
   <v>       0.01092399 </v>
   <v>       0.01092399 </v>
   <v>       0.01092399 </v>
   <v>       0.01092399 </v>
   <v>       0.02184797 </v>
   <v>       0.02184797 </v>
   <v>       0.02184797 </v>
   <v>       0.02184797 </v>
   <v>       0.01092399 </v>
   <v>       0.02184797 </v>
   <v>       0.02184797 </v>
   <v>       0.02184797 </v>
   <v>       0.01092399 </v>
   <v>       0.02184797 </v>
   <v>       0.02184797 </v>
   <v>       0.01092399 </v>
   <v>       0.02184797 </v>
   <v>       0.01092399 </v>
   <v>       0.00364133 </v>
   <v>       0.01092399 </v>
   <v>       0.01092399 </v>
   <v>       0.01092399 </v>
   <v>       0.01092399 </v>
   <v>       0.01092399 </v>
   <v>       0.02184797 </v>
   <v>       0.02184797 </v>
   <v>       0.02184797 </v>
   <v>       0.01092399 </v>
   <v>       0.02184797 </v>
   <v>       0.02184797 </v>
   <v>       0.01092399 </v>
   <v>       0.02184797 </v>
   <v>       0.01092399 </v>
   <v>       0.00364133 </v>
   <v>       0.01092399 </v>
   <v>       0.01092399 </v>
   <v>       0.01092399 </v>
   <v>       0.01092399 </v>
   <v>       0.02184797 </v>
   <v>       0.02184797 </v>
   <v>       0.01092399 </v>
   <v>       0.02184797 </v>
   <v>       0.01092399 </v>
   <v>       0.00364133 </v>
   <v>       0.01092399 </v>
   <v>       0.01092399 </v>
   <v>       0.01092399 </v>
   <v>       0.02184797 </v>
   <v>       0.01092399 </v>
   <v>       0.00364133 </v>
   <v>       0.01092399 </v>
   <v>       0.01092399 </v>
   <v>       0.00364133 </v>
  </varray>
 </kpoints>
 <parameters>
  <separator name="general" >
   <i type="string" name="SYSTEM">unknown system</i>
   <i type="logical" name="LCOMPAT"> F  </i>
  </separator>
  <separator name="electronic" >
   <i type="string" name="PREC">normal</i>
   <i name="ENMAX">    500.00000000</i>
   <i name="ENAUG">    250.69500000</i>
   <i name="EDIFF">      0.00010000</i>
   <i type="int" name="IALGO">    38</i>
   <i type="int" name="IWAVPR">    11</i>
   <i type="int" name="NBANDS">     5</i>
   <i type="int" name="NBANDSLOW">    -1</i>
   <i type="int" name="NBANDSHIGH">    -1</i>
   <i name="NELECT">      2.00000000</i>
   <i type="int" name="TURBO">     0</i>
   <i type="int" name="IRESTART">     0</i>
   <i type="int" name="NREBOOT">     0</i>
   <i type="int" name="NMIN">     0</i>
   <i name="EREF">      0.00000000</i>
   <separator name="electronic smearing" >
    <i type="int" name="ISMEAR">     1</i>
    <i name="SIGMA">      0.20000000</i>
    <i name="KSPACING">      0.50000000</i>
    <i type="logical" name="KGAMMA"> T  </i>
    <i type="logical" name="KBLOWUP"> T  </i>
   </separator>
   <separator name="electronic projectors" >
    <i type="logical" name="LREAL"> F  </i>
    <v name="ROPT">      0.00000000</v>
    <i type="int" name="LMAXPAW">  -100</i>
    <i type="int" name="LMAXMIX">     2</i>
    <i type="logical" name="NLSPLINE"> F  </i>
   </separator>
   <separator name="electronic startup" >
    <i type="int" name="ISTART">     1</i>
    <i type="int" name="ICHARG">     0</i>
    <i type="int" name="INIWAV">     1</i>
   </separator>
   <separator name="electronic spin" >
    <i type="int" name="ISPIN">     1</i>
    <i type="logical" name="LNONCOLLINEAR"> F  </i>
    <v name="MAGMOM">      1.00000000      1.00000000</v>
    <i name="NUPDOWN">     -1.00000000</i>
    <i type="logical" name="LSORBIT"> F  </i>
    <v name="SAXIS">      0.00000000      0.00000000      1.00000000</v>
    <i type="logical" name="LSPIRAL"> F  </i>
    <v name="QSPIRAL">      0.00000000      0.00000000      0.00000000</v>
    <i type="logical" name="LZEROZ"> F  </i>
   </separator>
   <separator name="electronic exchange-correlation" >
    <i type="logical" name="LASPH"> F  </i>
    <i type="logical" name="LMETAGGA"> F  </i>
   </separator>
   <separator name="electronic convergence" >
    <i type="int" name="NELM">    60</i>
    <i type="int" name="NELMDL">     0</i>
    <i type="int" name="NELMIN">     2</i>
    <i name="ENINI">    500.00000000</i>
    <separator name="electronic convergence detail" >
     <i type="logical" name="LDIAG"> T  </i>
     <i type="logical" name="LSUBROT"> F  </i>
     <i name="WEIMIN">      0.00100000</i>
     <i name="EBREAK">      0.00000500</i>
     <i name="DEPER">      0.30000000</i>
     <i type="int" name="NRMM">     4</i>
     <i name="TIME">      0.40000000</i>
    </separator>
   </separator>
   <separator name="electronic mixer" >
    <i name="AMIX">      0.40000000</i>
    <i name="BMIX">      1.00000000</i>
    <i name="AMIN">      0.10000000</i>
    <i name="AMIX_MAG">      1.60000000</i>
    <i name="BMIX_MAG">      1.00000000</i>
    <separator name="electronic mixer details" >
     <i type="int" name="IMIX">     4</i>
     <i type="logical" name="MIXFIRST"> F  </i>
     <i type="int" name="MAXMIX">   -45</i>
     <i name="WC">    100.00000000</i>
     <i type="int" name="INIMIX">     1</i>
     <i type="int" name="MIXPRE">     1</i>
     <i type="int" name="MREMOVE">     5</i>
    </separator>
   </separator>
   <separator name="electronic dipolcorrection" >
    <i type="logical" name="LDIPOL"> F  </i>
    <i type="logical" name="LMONO"> F  </i>
    <i type="int" name="IDIPOL">     0</i>
    <i name="EPSILON">      1.00000000</i>
    <v name="DIPOL">   -100.00000000   -100.00000000   -100.00000000</v>
    <i name="EFIELD">      0.00000000</i>
   </separator>
  </separator>
  <separator name="grids" >
   <i type="int" name="NGX">    24</i>
   <i type="int" name="NGY">    24</i>
   <i type="int" name="NGZ">    24</i>
   <i type="int" name="NGXF">    48</i>
   <i type="int" name="NGYF">    48</i>
   <i type="int" name="NGZF">    48</i>
   <i type="logical" name="ADDGRID"> F  </i>
  </separator>
  <separator name="ionic" >
   <i type="int" name="NSW">   100</i>
   <i type="int" name="IBRION">     2</i>
   <i type="int" name="MDALGO">     0</i>
   <i type="int" name="ISIF">     2</i>
   <i name="PSTRESS">      0.00000000</i>
   <i name="EDIFFG">      0.00100000</i>
   <i type="int" name="NFREE">     1</i>
   <i name="POTIM">      0.50000000</i>
   <i name="SMASS">     -3.00000000</i>
   <i name="SCALEE">      1.00000000</i>
  </separator>
  <separator name="ionic md" >
   <i name="TEBEG">      0.00010000</i>
   <i name="TEEND">      0.00010000</i>
   <i type="int" name="NBLOCK">     1</i>
   <i type="int" name="KBLOCK">   100</i>
   <i type="int" name="NPACO">   256</i>
   <i name="APACO">     16.00000000</i>
  </separator>
  <separator name="symmetry" >
   <i type="int" name="ISYM">     2</i>
   <i name="SYMPREC">      0.00001000</i>
  </separator>
  <separator name="dos" >
   <i type="int" name="LORBIT">     0</i>
   <v name="RWIGS">     -1.00000000</v>
   <i type="int" name="NEDOS">   301</i>
   <i name="EMIN">     10.00000000</i>
   <i name="EMAX">    -10.00000000</i>
   <i name="EFERMI">      0.00000000</i>
  </separator>
  <separator name="writing" >
   <i type="int" name="NWRITE">     2</i>
   <i type="logical" name="LWAVE"> T  </i>
   <i type="logical" name="LDOWNSAMPLE"> F  </i>
   <i type="logical" name="LCHARG"> T  </i>
   <i type="logical" name="LPARD"> F  </i>
   <i type="logical" name="LVTOT"> F  </i>
   <i type="logical" name="LVHAR"> T  </i>
   <i type="logical" name="LELF"> F  </i>
   <i type="logical" name="LOPTICS"> F  </i>
   <v name="STM">      0.00000000      0.00000000      0.00000000      0.00000000      0.00000000      0.00000000      0.00000000</v>
  </separator>
  <separator name="performance" >
   <i type="int" name="NPAR">     1</i>
   <i type="int" name="NSIM">     4</i>
   <i type="int" name="NBLK">    -1</i>
   <i type="logical" name="LPLANE"> T  </i>
   <i type="logical" name="LSCALAPACK"> T  </i>
   <i type="logical" name="LSCAAWARE"> F  </i>
   <i type="logical" name="LSCALU"> F  </i>
   <i type="logical" name="LASYNC"> F  </i>
   <i type="logical" name="LORBITALREAL"> F  </i>
  </separator>
  <separator name="miscellaneous" >
   <i type="int" name="IDIOT">     3</i>
   <i type="int" name="PHON_NSTRUCT">    -1</i>
   <i type="logical" name="LMUSIC"> F  </i>
   <v name="POMASS">     22.99000000</v>
   <v name="DARWINR">      0.00000000</v>
   <v name="DARWINV">      1.00000000</v>
   <i type="logical" name="LCORR"> T  </i>
  </separator>
  <i type="logical" name="GGA_COMPAT"> T  </i>
  <i type="logical" name="LBERRY"> F  </i>
  <i type="int" name="ICORELEVEL">     0</i>
  <i type="logical" name="LDAU"> F  </i>
  <i type="int" name="I_CONSTRAINED_M">     0</i>
  <separator name="electronic exchange-correlation" >
   <i type="string" name="GGA">PE</i>
   <i type="int" name="VOSKOWN">     0</i>
   <i type="logical" name="LHFCALC"> F  </i>
   <i type="string" name="PRECFOCK"></i>
   <i type="logical" name="LSYMGRAD"> F  </i>
   <i type="logical" name="LHFONE"> F  </i>
   <i type="logical" name="LRHFCALC"> F  </i>
   <i type="logical" name="LTHOMAS"> F  </i>
   <i type="logical" name="LMODELHF"> F  </i>
   <i type="logical" name="LFOCKACE"> F  </i>
   <i name="ENCUT4O">     -1.00000000</i>
   <i type="int" name="EXXOEP">     0</i>
   <i type="int" name="FOURORBIT">     0</i>
   <i name="AEXX">      0.00000000</i>
   <i name="HFALPHA">      0.00000000</i>
   <i name="MCALPHA">      0.00000000</i>
   <i name="ALDAX">      1.00000000</i>
   <i name="AGGAX">      1.00000000</i>
   <i name="ALDAC">      1.00000000</i>
   <i name="AGGAC">      1.00000000</i>
   <i type="int" name="NKREDX">     1</i>
   <i type="int" name="NKREDY">     1</i>
   <i type="int" name="NKREDZ">     1</i>
   <i type="logical" name="SHIFTRED"> F  </i>
   <i type="logical" name="ODDONLY"> F  </i>
   <i type="logical" name="EVENONLY"> F  </i>
   <i type="int" name="LMAXFOCK">     0</i>
   <i type="int" name="NMAXFOCKAE">     0</i>
   <i type="logical" name="LFOCKAEDFT"> F  </i>
   <i name="HFSCREEN">      0.00000000</i>
   <i name="HFSCREENC">      0.00000000</i>
   <i type="int" name="NBANDSGWLOW">     0</i>
  </separator>
  <separator name="vdW DFT" >
   <i type="logical" name="LUSE_VDW"> F  </i>
   <i name="Zab_VDW">     -0.84910000</i>
   <i name="PARAM1">      0.12340000</i>
   <i name="PARAM2">      1.00000000</i>
   <i name="PARAM3">      0.00000000</i>
  </separator>
  <separator name="model GW" >
   <i type="int" name="MODEL_GW">     0</i>
   <i name="MODEL_EPS0">     23.55381520</i>
   <i name="MODEL_ALPHA">      1.00000000</i>
  </separator>
  <separator name="linear response parameters" >
   <i type="logical" name="LEPSILON"> F  </i>
   <i type="logical" name="LRPA"> F  </i>
   <i type="logical" name="LNABLA"> F  </i>
   <i type="logical" name="LVEL"> F  </i>
   <i type="int" name="KINTER">     0</i>
   <i name="CSHIFT">      0.10000000</i>
   <i name="OMEGAMAX">     -1.00000000</i>
   <i name="DEG_THRESHOLD">      0.00200000</i>
   <i name="RTIME">     -0.10000000</i>
   <i name="WPLASMAI">      0.00000000</i>
   <v name="DFIELD">      0.00000000      0.00000000      0.00000000</v>
   <v name="WPLASMA">      0.00000000      0.00000000      0.00000000      0.00000000      0.00000000      0.00000000      0.00000000      0.00000000      0.00000000</v>
  </separator>
  <separator name="orbital magnetization" >
   <i type="logical" name="NUCIND"> F  </i>
   <v name="MAGPOS">      0.00000000      0.00000000      0.00000000</v>
   <i type="logical" name="LNICSALL"> T  </i>
   <i type="logical" name="ORBITALMAG"> F  </i>
   <i type="logical" name="LMAGBLOCH"> F  </i>
   <i type="logical" name="LCHIMAG"> F  </i>
   <i type="logical" name="LGAUGE"> T  </i>
   <i type="int" name="MAGATOM">     0</i>
   <v name="MAGDIPOL">      0.00000000      0.00000000      0.00000000</v>
   <v name="AVECCONST">      0.00000000      0.00000000      0.00000000</v>
  </separator>
  <separator name="response functions" >
   <i type="logical" name="LFINITE_TEMPERATURE"> F  </i>
   <i type="logical" name="LADDER"> F  </i>
   <i type="logical" name="LRPAFORCE"> F  </i>
   <i type="logical" name="LFXC"> F  </i>
   <i type="logical" name="LHARTREE"> T  </i>
   <i type="int" name="IBSE">     0</i>
   <v type="int" name="KPOINT">    -1     0     0     0</v>
   <i type="logical" name="LTCTC"> F  </i>
   <i type="logical" name="LTCTE"> F  </i>
   <i type="logical" name="LTETE"> F  </i>
   <i type="logical" name="LTRIPLET"> F  </i>
   <i type="logical" name="LFXCEPS"> F  </i>
   <i type="logical" name="LFXHEG"> F  </i>
   <i type="int" name="NATURALO">     2</i>
   <i type="logical" name="LHOLEGF"> F  </i>
   <i type="logical" name="L2ORDER"> F  </i>
   <i type="logical" name="LDMP1"> F  </i>
   <i type="logical" name="LMP2LT"> F  </i>
   <i type="logical" name="LSMP2LT"> F  </i>
   <i type="logical" name="LGWLF"> F  </i>
   <i name="ENCUTGW">     -2.00000000</i>
   <i name="ENCUTGWSOFT">     -2.00000000</i>
   <i name="ENCUTLF">     -1.00000000</i>
   <i type="logical" name="LESF_SPLINES"> F  </i>
   <i type="int" name="LMAXMP2">    -1</i>
   <i name="SCISSOR">      0.00000000</i>
   <i type="int" name="NOMEGA">     0</i>
   <i type="int" name="NOMEGAR">     0</i>
   <i type="int" name="NBANDSGW">    -1</i>
   <i type="int" name="NBANDSO">    -1</i>
   <i type="int" name="NBANDSV">    -1</i>
   <i type="int" name="NELM">     1</i>
   <i type="int" name="NELMHF">     1</i>
   <i type="int" name="DIM">     3</i>
   <i type="int" name="IESPILON">     4</i>
   <i type="int" name="ANTIRES">     0</i>
   <i name="OMEGAMAX">    -30.00000000</i>
   <i name="OMEGAMIN">    -30.00000000</i>
   <i name="OMEGATL">   -200.00000000</i>
   <i type="int" name="OMEGAGRID">     0</i>
   <i name="CSHIFT">     -0.10000000</i>
   <i type="logical" name="LSELFENERGY"> F  </i>
   <i type="logical" name="LSPECTRAL"> F  </i>
   <i type="logical" name="LSPECTRALGW"> F  </i>
   <i type="logical" name="LSINGLES"> F  </i>
   <i type="logical" name="LFERMIGW"> F  </i>
   <i type="logical" name="ODDONLYGW"> F  </i>
   <i type="logical" name="EVENONLYGW"> F  </i>
   <i type="int" name="NKREDLFX">     1</i>
   <i type="int" name="NKREDLFY">     1</i>
   <i type="int" name="NKREDLFZ">     1</i>
   <i type="int" name="MAXMEM">  2800</i>
   <i type="int" name="TELESCOPE">     0</i>
   <i type="int" name="NTAUPAR">    -1</i>
   <i type="int" name="NOMEGAPAR">    -1</i>
   <i name="DAMP_NEWTON">      0.80000001</i>
   <i name="LAMBDA">      1.00000000</i>
  </separator>
  <separator name="External order field" >
   <i name="OFIELD_KAPPA">      0.00000000</i>
   <v name="OFIELD_K">      0.00000000      0.00000000      0.00000000</v>
   <i name="OFIELD_Q6_NEAR">      0.00000000</i>
   <i name="OFIELD_Q6_FAR">      0.00000000</i>
   <i name="OFIELD_A">      0.00000000</i>
  </separator>
 </parameters>
 <atominfo>
  <atoms>       2 </atoms>
  <types>       1 </types>
  <array name="atoms" >
   <dimension dim="1">ion</dimension>
   <field type="string">element</field>
   <field type="int">atomtype</field>
   <set>
    <rc><c>Na</c><c>   1</c></rc>
    <rc><c>Na</c><c>   1</c></rc>
   </set>
  </array>
  <array name="atomtypes" >
   <dimension dim="1">type</dimension>
   <field type="int">atomspertype</field>
   <field type="string">element</field>
   <field>mass</field>
   <field>valence</field>
   <field type="string">pseudopotential</field>
   <set>
    <rc><c>   2</c><c>Na</c><c>     22.99000000</c><c>      1.00000000</c><c>  PAW_PBE Na 08Apr2002                  </c></rc>
   </set>
  </array>
 </atominfo>
 <structure name="initialpos" >
  <crystal>
   <varray name="basis" >
    <v>       4.28200006       0.00000000       0.00000000 </v>
    <v>       0.00000000       4.28200006       0.00000000 </v>
    <v>       0.00000000       0.00000000       4.28200006 </v>
   </varray>
   <i name="volume">     78.51271733 </i>
   <varray name="rec_basis" >
    <v>       0.23353573       0.00000000       0.00000000 </v>
    <v>       0.00000000       0.23353573       0.00000000 </v>
    <v>       0.00000000       0.00000000       0.23353573 </v>
   </varray>
  </crystal>
  <varray name="positions" >
   <v>       0.00000000       0.00000000       0.00000000 </v>
   <v>       0.50000000       0.50000000       0.50000000 </v>
  </varray>
 </structure>
 <calculation>
  <scstep>
   <time name="dav">    1.07    1.08</time>
   <time name="total">    1.24    1.48</time>
   <energy>
    <i name="alphaZ">     -0.93315053 </i>
    <i name="ewald">    -12.23825003 </i>
    <i name="hartreedc">     -0.00827595 </i>
    <i name="XCdc">    -74.18993815 </i>
    <i name="pawpsdc">     76.11055633 </i>
    <i name="pawaedc">     -1.08792080 </i>
    <i name="eentropy">     -0.00097462 </i>
    <i name="bandstr">     -0.23874698 </i>
    <i name="atom">     10.31613858 </i>
    <i name="e_fr_energy">     -2.27056215 </i>
    <i name="e_wo_entrp">     -2.26958753 </i>
    <i name="e_0_energy">     -2.27023728 </i>
   </energy>
  </scstep>
  <scstep>
   <time name="dav">    1.42    1.43</time>
   <time name="total">    1.67    1.68</time>
   <energy>
    <i name="e_fr_energy">     -2.60826789 </i>
    <i name="e_wo_entrp">     -2.60736225 </i>
    <i name="e_0_energy">     -2.60796601 </i>
   </energy>
  </scstep>
  <scstep>
   <time name="dav">    1.94    1.96</time>
   <time name="total">    2.23    2.25</time>
   <energy>
    <i name="e_fr_energy">     -2.60662926 </i>
    <i name="e_wo_entrp">     -2.60572031 </i>
    <i name="e_0_energy">     -2.60632627 </i>
   </energy>
  </scstep>
  <scstep>
   <time name="dav">    1.49    1.50</time>
   <time name="total">    1.78    1.79</time>
   <energy>
    <i name="e_fr_energy">     -2.60634558 </i>
    <i name="e_wo_entrp">     -2.60543595 </i>
    <i name="e_0_energy">     -2.60604237 </i>
   </energy>
  </scstep>
  <scstep>
   <time name="dav">    1.09    1.09</time>
   <time name="total">    1.18    1.19</time>
   <energy>
    <i name="alphaZ">     -0.93315053 </i>
    <i name="ewald">    -12.23825003 </i>
    <i name="hartreedc">     -0.02645539 </i>
    <i name="XCdc">    -73.05149291 </i>
    <i name="pawpsdc">     78.59052526 </i>
    <i name="pawaedc">     -3.57715536 </i>
    <i name="eentropy">     -0.00090960 </i>
    <i name="bandstr">     -1.68558300 </i>
    <i name="atom">     10.31613858 </i>
    <i name="e_fr_energy">     -2.60633299 </i>
    <i name="e_wo_entrp">     -2.60542339 </i>
    <i name="e_0_energy">     -2.60602979 </i>
   </energy>
  </scstep>
  <structure>
   <crystal>
    <varray name="basis" >
     <v>       4.28200006       0.00000000       0.00000000 </v>
     <v>       0.00000000       4.28200006       0.00000000 </v>
     <v>       0.00000000       0.00000000       4.28200006 </v>
    </varray>
    <i name="volume">     78.51271733 </i>
    <varray name="rec_basis" >
     <v>       0.23353573       0.00000000       0.00000000 </v>
     <v>       0.00000000       0.23353573       0.00000000 </v>
     <v>       0.00000000       0.00000000       0.23353573 </v>
    </varray>
   </crystal>
   <varray name="positions" >
    <v>       0.00000000       0.00000000       0.00000000 </v>
    <v>       0.50000000       0.50000000       0.50000000 </v>
   </varray>
  </structure>
  <varray name="forces" >
   <v>       0.00000000      -0.00000000       0.00000000 </v>
   <v>      -0.00000000       0.00000000      -0.00000000 </v>
  </varray>
  <varray name="stress" >
   <v>      -4.41716796       0.00000000       0.00000000 </v>
   <v>       0.00000000      -4.41716796      -0.00000000 </v>
   <v>      -0.00000000       0.00000000      -4.41716796 </v>
  </varray>
  <energy>
   <i name="e_fr_energy">     -2.60633299 </i>
   <i name="e_wo_entrp">     -2.60542339 </i>
   <i name="e_0_energy">     -2.60602979 </i>
  </energy>
  <time name="totalsc">    9.81   13.89</time>
  <eigenvalues>
   <array>
    <dimension dim="1">band</dimension>
    <dimension dim="2">kpoint</dimension>
    <dimension dim="3">spin</dimension>
    <field>eigene</field>
    <field>occ</field>
    <set>
     <set comment="spin 1">
      <set comment="kpoint 1">
       <r>   -2.7548    1.0000 </r>
       <r>    4.8308   -0.0000 </r>
       <r>    4.8308   -0.0000 </r>
       <r>    5.0979   -0.0000 </r>
       <r>    5.0979   -0.0000 </r>
      </set>
      <set comment="kpoint 2">
       <r>   -2.7050    1.0000 </r>
       <r>    3.9704   -0.0000 </r>
       <r>    4.8792   -0.0000 </r>
       <r>    5.1399   -0.0000 </r>
       <r>    5.1399   -0.0000 </r>
      </set>
      <set comment="kpoint 3">
       <r>   -2.5560    1.0000 </r>
       <r>    2.9843   -0.0000 </r>
       <r>    5.0243   -0.0000 </r>
       <r>    5.2661   -0.0000 </r>
       <r>    5.2661   -0.0000 </r>
      </set>
      <set comment="kpoint 4">
       <r>   -2.3082    1.0000 </r>
       <r>    2.0399   -0.0000 </r>
       <r>    5.2662   -0.0000 </r>
       <r>    5.4767   -0.0000 </r>
       <r>    5.4767   -0.0000 </r>
      </set>
      <set comment="kpoint 5">
       <r>   -1.9626    1.0000 </r>
       <r>    1.1615   -0.0000 </r>
       <r>    5.6047   -0.0000 </r>
       <r>    5.7720   -0.0000 </r>
       <r>    5.7720   -0.0000 </r>
      </set>
      <set comment="kpoint 6">
       <r>   -1.5208    1.0000 </r>
       <r>    0.3605    0.7208 </r>
       <r>    6.0400    0.0000 </r>
       <r>    6.1524    0.0000 </r>
       <r>    6.1524    0.0000 </r>
      </set>
      <set comment="kpoint 7">
       <r>   -0.9845    1.0000 </r>
       <r>   -0.3563    1.0000 </r>
       <r>    6.5718    0.0000 </r>
       <r>    6.6186    0.0000 </r>
       <r>    6.6186    0.0000 </r>
      </set>
      <set comment="kpoint 8">
       <r>   -2.6553    1.0000 </r>
       <r>    3.8686   -0.0000 </r>
       <r>    4.2171   -0.0000 </r>
       <r>    5.1820   -0.0000 </r>
       <r>    5.5090   -0.0000 </r>
      </set>
      <set comment="kpoint 9">
       <r>   -2.5063    1.0000 </r>
       <r>    3.0162   -0.0000 </r>
       <r>    4.2262   -0.0000 </r>
       <r>    5.3081   -0.0000 </r>
       <r>    5.7046   -0.0000 </r>
      </set>
      <set comment="kpoint 10">
       <r>   -2.2587    1.0000 </r>
       <r>    2.0829   -0.0000 </r>
       <r>    4.4439   -0.0000 </r>
       <r>    5.5187   -0.0000 </r>
       <r>    5.9523    0.0000 </r>
      </set>
      <set comment="kpoint 11">
       <r>   -1.9134    1.0000 </r>
       <r>    1.2075   -0.0000 </r>
       <r>    4.7598   -0.0000 </r>
       <r>    5.8139   -0.0000 </r>
       <r>    6.2863    0.0000 </r>
      </set>
      <set comment="kpoint 12">
       <r>   -1.4719    1.0000 </r>
       <r>    0.4078    0.5300 </r>
       <r>    5.1677   -0.0000 </r>
       <r>    6.1943    0.0000 </r>
       <r>    6.9281    0.0000 </r>
      </set>
      <set comment="kpoint 13">
       <r>   -0.9360    1.0000 </r>
       <r>   -0.3083    1.0000 </r>
       <r>    5.6658   -0.0000 </r>
       <r>    6.2530    0.0000 </r>
       <r>    6.6604    0.0000 </r>
      </set>
      <set comment="kpoint 14">
       <r>   -2.3577    1.0000 </r>
       <r>    2.9674   -0.0000 </r>
       <r>    3.4315   -0.0000 </r>
       <r>    5.4343   -0.0000 </r>
       <r>    8.4829    0.0000 </r>
      </set>
      <set comment="kpoint 15">
       <r>   -2.1105    1.0000 </r>
       <r>    2.2032   -0.0000 </r>
       <r>    3.4805   -0.0000 </r>
       <r>    5.6448   -0.0000 </r>
       <r>    7.5642    0.0000 </r>
      </set>
      <set comment="kpoint 16">
       <r>   -1.7659    1.0000 </r>
       <r>    1.3438   -0.0000 </r>
       <r>    3.7825   -0.0000 </r>
       <r>    5.9399    0.0000 </r>
       <r>    6.5847    0.0000 </r>
      </set>
      <set comment="kpoint 17">
       <r>   -1.3253    1.0000 </r>
       <r>    0.5490    0.0508 </r>
       <r>    4.1888   -0.0000 </r>
       <r>    6.3201    0.0000 </r>
       <r>    7.0238    0.0000 </r>
      </set>
      <set comment="kpoint 18">
       <r>   -0.7907    1.0000 </r>
       <r>   -0.1646    1.0002 </r>
       <r>    4.6884   -0.0000 </r>
       <r>    5.2781   -0.0000 </r>
       <r>    6.7857    0.0000 </r>
      </set>
      <set comment="kpoint 19">
       <r>   -1.8642    1.0000 </r>
       <r>    2.2461   -0.0000 </r>
       <r>    2.7251   -0.0000 </r>
       <r>    5.8551   -0.0000 </r>
       <r>    6.6442    0.0000 </r>
      </set>
      <set comment="kpoint 20">
       <r>   -1.5208    1.0000 </r>
       <r>    1.5606   -0.0000 </r>
       <r>    2.8574   -0.0000 </r>
       <r>    5.7961   -0.0000 </r>
       <r>    6.1499    0.0000 </r>
      </set>
      <set comment="kpoint 21">
       <r>   -1.0818    1.0000 </r>
       <r>    0.7820   -0.0131 </r>
       <r>    3.2530   -0.0000 </r>
       <r>    5.0288   -0.0000 </r>
       <r>    6.5296    0.0000 </r>
      </set>
      <set comment="kpoint 22">
       <r>   -0.5493    1.0000 </r>
       <r>    0.0737    1.0183 </r>
       <r>    3.7536   -0.0000 </r>
       <r>    6.9942    0.0000 </r>
       <r>    7.8392    0.0000 </r>
      </set>
      <set comment="kpoint 23">
       <r>   -1.1791    1.0000 </r>
       <r>    1.7056   -0.0000 </r>
       <r>    2.1650   -0.0000 </r>
       <r>    6.4442    0.0000 </r>
       <r>    7.2291    0.0000 </r>
      </set>
      <set comment="kpoint 24">
       <r>   -0.7425    1.0000 </r>
       <r>    1.0972   -0.0000 </r>
       <r>    2.3972   -0.0000 </r>
       <r>    6.8226    0.0000 </r>
       <r>    7.6663    0.0000 </r>
      </set>
      <set comment="kpoint 25">
       <r>   -0.2133    1.0000 </r>
       <r>    0.4042    0.5450 </r>
       <r>    2.8900   -0.0000 </r>
       <r>    3.4855   -0.0000 </r>
       <r>    7.2846    0.0000 </r>
      </set>
      <set comment="kpoint 26">
       <r>   -0.3092    1.0000 </r>
       <r>    1.3457   -0.0000 </r>
       <r>    1.7803   -0.0000 </r>
       <r>    3.3953   -0.0000 </r>
       <r>    7.1982    0.0000 </r>
      </set>
      <set comment="kpoint 27">
       <r>    0.2144    1.0254 </r>
       <r>    0.8174   -0.0077 </r>
       <r>    2.1165   -0.0000 </r>
       <r>    2.7061   -0.0000 </r>
       <r>    7.6530    0.0000 </r>
      </set>
      <set comment="kpoint 28">
       <r>    0.7239   -0.0256 </r>
       <r>    1.1658   -0.0000 </r>
       <r>    1.5849   -0.0000 </r>
       <r>    2.0223   -0.0000 </r>
       <r>    8.0807    0.0000 </r>
      </set>
      <set comment="kpoint 29">
       <r>   -2.6056    1.0000 </r>
       <r>    3.9140   -0.0000 </r>
       <r>    3.9140   -0.0000 </r>
       <r>    4.6998   -0.0000 </r>
       <r>    6.2890    0.0000 </r>
      </set>
      <set comment="kpoint 30">
       <r>   -2.4567    1.0000 </r>
       <r>    3.0502   -0.0000 </r>
       <r>    4.0504   -0.0000 </r>
       <r>    4.7080   -0.0000 </r>
       <r>    6.4240    0.0000 </r>
      </set>
      <set comment="kpoint 31">
       <r>   -2.2093    1.0000 </r>
       <r>    2.1259   -0.0000 </r>
       <r>    4.2775   -0.0000 </r>
       <r>    4.9095   -0.0000 </r>
       <r>    6.6494    0.0000 </r>
      </set>
      <set comment="kpoint 32">
       <r>   -1.8642    1.0000 </r>
       <r>    1.2534   -0.0000 </r>
       <r>    4.5954   -0.0000 </r>
       <r>    5.2155   -0.0000 </r>
       <r>    6.9654    0.0000 </r>
      </set>
      <set comment="kpoint 33">
       <r>   -1.4230    1.0000 </r>
       <r>    0.4549    0.3341 </r>
       <r>    5.0039   -0.0000 </r>
       <r>    5.6130   -0.0000 </r>
       <r>    6.7715    0.0000 </r>
      </set>
      <set comment="kpoint 34">
       <r>   -0.8875    1.0000 </r>
       <r>   -0.2604    1.0000 </r>
       <r>    5.5029   -0.0000 </r>
       <r>    6.0922    0.0000 </r>
       <r>    6.0976    0.0000 </r>
      </set>
      <set comment="kpoint 35">
       <r>   -2.3082    1.0000 </r>
       <r>    3.0126   -0.0000 </r>
       <r>    3.4221   -0.0000 </r>
       <r>    4.6478   -0.0000 </r>
       <r>    6.8319    0.0000 </r>
      </set>
      <set comment="kpoint 36">
       <r>   -2.0612    1.0000 </r>
       <r>    2.2465   -0.0000 </r>
       <r>    3.4955   -0.0000 </r>
       <r>    4.8444   -0.0000 </r>
       <r>    7.1040    0.0000 </r>
      </set>
      <set comment="kpoint 37">
       <r>   -1.7168    1.0000 </r>
       <r>    1.3895   -0.0000 </r>
       <r>    3.8001   -0.0000 </r>
       <r>    5.1516   -0.0000 </r>
       <r>    6.7358    0.0000 </r>
      </set>
      <set comment="kpoint 38">
       <r>   -1.2765    1.0000 </r>
       <r>    0.5960   -0.0124 </r>
       <r>    4.2063   -0.0000 </r>
       <r>    5.5521   -0.0000 </r>
       <r>    5.9721    0.0000 </r>
      </set>
      <set comment="kpoint 39">
       <r>   -0.7423    1.0000 </r>
       <r>   -0.1168    1.0006 </r>
       <r>    4.7053   -0.0000 </r>
       <r>    5.2945   -0.0000 </r>
       <r>    6.0407    0.0000 </r>
      </set>
      <set comment="kpoint 40">
       <r>   -1.8151    1.0000 </r>
       <r>    2.2911   -0.0000 </r>
       <r>    2.7594   -0.0000 </r>
       <r>    5.0413   -0.0000 </r>
       <r>    6.6753    0.0000 </r>
      </set>
      <set comment="kpoint 41">
       <r>   -1.4719    1.0000 </r>
       <r>    1.6060   -0.0000 </r>
       <r>    2.8961   -0.0000 </r>
       <r>    5.3477   -0.0000 </r>
       <r>    5.8308   -0.0000 </r>
      </set>
      <set comment="kpoint 42">
       <r>   -1.0332    1.0000 </r>
       <r>    0.8287   -0.0064 </r>
       <r>    3.2918   -0.0000 </r>
       <r>    5.0650   -0.0000 </r>
       <r>    5.7469   -0.0000 </r>
      </set>
      <set comment="kpoint 43">
       <r>   -0.5011    1.0000 </r>
       <r>    0.1213    1.0291 </r>
       <r>    3.7917   -0.0000 </r>
       <r>    4.3841   -0.0000 </r>
       <r>    6.2332    0.0000 </r>
      </set>
      <set comment="kpoint 44">
       <r>   -1.1305    1.0000 </r>
       <r>    1.7505   -0.0000 </r>
       <r>    2.2090   -0.0000 </r>
       <r>    4.9833   -0.0000 </r>
       <r>    5.6521   -0.0000 </r>
      </set>
      <set comment="kpoint 45">
       <r>   -0.6942    1.0000 </r>
       <r>    1.1434   -0.0000 </r>
       <r>    2.4415   -0.0000 </r>
       <r>    4.2133   -0.0000 </r>
       <r>    6.0477    0.0000 </r>
      </set>
      <set comment="kpoint 46">
       <r>   -0.1654    1.0002 </r>
       <r>    0.4514    0.3483 </r>
       <r>    2.9336   -0.0000 </r>
       <r>    3.5282   -0.0000 </r>
       <r>    6.5280    0.0000 </r>
      </set>
      <set comment="kpoint 47">
       <r>   -0.2613    1.0000 </r>
       <r>    1.3905   -0.0000 </r>
       <r>    1.8274   -0.0000 </r>
       <r>    3.4390   -0.0000 </r>
       <r>    6.4369    0.0000 </r>
      </set>
      <set comment="kpoint 48">
       <r>    0.2618    0.9807 </r>
       <r>    0.8639   -0.0033 </r>
       <r>    2.1625   -0.0000 </r>
       <r>    2.7511   -0.0000 </r>
       <r>    6.9038    0.0000 </r>
      </set>
      <set comment="kpoint 49">
       <r>    0.7705   -0.0153 </r>
       <r>    1.2107   -0.0000 </r>
       <r>    1.6331   -0.0000 </r>
       <r>    2.0687   -0.0000 </r>
       <r>    7.3290    0.0000 </r>
      </set>
      <set comment="kpoint 50">
       <r>   -2.1599    1.0000 </r>
       <r>    3.1481   -0.0000 </r>
       <r>    3.1481   -0.0000 </r>
       <r>    4.0485   -0.0000 </r>
       <r>    8.4343    0.0000 </r>
      </set>
      <set comment="kpoint 51">
       <r>   -1.9134    1.0000 </r>
       <r>    2.3695   -0.0000 </r>
       <r>    3.3740   -0.0000 </r>
       <r>    4.1031   -0.0000 </r>
       <r>    7.4894    0.0000 </r>
      </set>
      <set comment="kpoint 52">
       <r>   -1.5698    1.0000 </r>
       <r>    1.5251   -0.0000 </r>
       <r>    3.6903   -0.0000 </r>
       <r>    4.3891   -0.0000 </r>
       <r>    6.6308    0.0000 </r>
      </set>
      <set comment="kpoint 53">
       <r>   -1.1304    1.0000 </r>
       <r>    0.7365   -0.0227 </r>
       <r>    4.0972   -0.0000 </r>
       <r>    4.7901   -0.0000 </r>
       <r>    6.5190    0.0000 </r>
      </set>
      <set comment="kpoint 54">
       <r>   -0.5975    1.0000 </r>
       <r>    0.0263    1.0096 </r>
       <r>    4.5947   -0.0000 </r>
       <r>    5.2849   -0.0000 </r>
       <r>    5.8642   -0.0000 </r>
      </set>
      <set comment="kpoint 55">
       <r>   -1.6678    1.0000 </r>
       <r>    2.4262   -0.0000 </r>
       <r>    2.8298   -0.0000 </r>
       <r>    4.0933   -0.0000 </r>
       <r>    6.7512    0.0000 </r>
      </set>
      <set comment="kpoint 56">
       <r>   -1.3254    1.0000 </r>
       <r>    1.7409   -0.0000 </r>
       <r>    2.9949   -0.0000 </r>
       <r>    4.3744   -0.0000 </r>
       <r>    5.9200    0.0000 </r>
      </set>
      <set comment="kpoint 57">
       <r>   -0.8877    1.0000 </r>
       <r>    0.9683   -0.0003 </r>
       <r>    3.3921   -0.0000 </r>
       <r>    4.7732   -0.0000 </r>
       <r>    5.1580   -0.0000 </r>
      </set>
      <set comment="kpoint 58">
       <r>   -0.3569    1.0000 </r>
       <r>    0.2637    0.9779 </r>
       <r>    3.8901   -0.0000 </r>
       <r>    4.4799   -0.0000 </r>
       <r>    5.2658   -0.0000 </r>
      </set>
      <set comment="kpoint 59">
       <r>   -0.9847    1.0000 </r>
       <r>    1.8854   -0.0000 </r>
       <r>    2.3350   -0.0000 </r>
       <r>    4.6541   -0.0000 </r>
       <r>    5.0966   -0.0000 </r>
      </set>
      <set comment="kpoint 60">
       <r>   -0.5495    1.0000 </r>
       <r>    1.2814   -0.0000 </r>
       <r>    2.5707   -0.0000 </r>
       <r>    4.3340   -0.0000 </r>
       <r>    5.0489   -0.0000 </r>
      </set>
      <set comment="kpoint 61">
       <r>   -0.0222    1.0042 </r>
       <r>    0.5926   -0.0094 </r>
       <r>    3.0610   -0.0000 </r>
       <r>    3.6529   -0.0000 </r>
       <r>    5.5344   -0.0000 </r>
      </set>
      <set comment="kpoint 62">
       <r>   -0.1178    1.0005 </r>
       <r>    1.5252   -0.0000 </r>
       <r>    1.9666   -0.0000 </r>
       <r>    3.5681   -0.0000 </r>
       <r>    5.4363   -0.0000 </r>
      </set>
      <set comment="kpoint 63">
       <r>    0.4036    0.5475 </r>
       <r>    1.0031   -0.0001 </r>
       <r>    2.2990   -0.0000 </r>
       <r>    2.8845   -0.0000 </r>
       <r>    5.9060    0.0000 </r>
      </set>
      <set comment="kpoint 64">
       <r>    0.9100   -0.0013 </r>
       <r>    1.3453   -0.0000 </r>
       <r>    1.7764   -0.0000 </r>
       <r>    2.2069   -0.0000 </r>
       <r>    6.3287    0.0000 </r>
      </set>
      <set comment="kpoint 65">
       <r>   -1.4231    1.0000 </r>
       <r>    2.6515   -0.0000 </r>
       <r>    2.6515   -0.0000 </r>
       <r>    3.5495   -0.0000 </r>
       <r>    6.7615    0.0000 </r>
      </set>
      <set comment="kpoint 66">
       <r>   -1.0819    1.0000 </r>
       <r>    1.9571   -0.0000 </r>
       <r>    2.9670   -0.0000 </r>
       <r>    3.6919   -0.0000 </r>
       <r>    6.4016    0.0000 </r>
      </set>
      <set comment="kpoint 67">
       <r>   -0.6459    1.0000 </r>
       <r>    1.1984   -0.0000 </r>
       <r>    3.3730   -0.0000 </r>
       <r>    4.0719   -0.0000 </r>
       <r>    5.7761   -0.0000 </r>
      </set>
      <set comment="kpoint 68">
       <r>   -0.1175    1.0005 </r>
       <r>    0.4997    0.1743 </r>
       <r>    3.8695   -0.0000 </r>
       <r>    4.5638   -0.0000 </r>
       <r>    5.1402   -0.0000 </r>
      </set>
      <set comment="kpoint 69">
       <r>   -0.7426    1.0000 </r>
       <r>    2.1103   -0.0000 </r>
       <r>    2.5035   -0.0000 </r>
       <r>    3.7691   -0.0000 </r>
       <r>    5.2588   -0.0000 </r>
      </set>
      <set comment="kpoint 70">
       <r>   -0.3092    1.0000 </r>
       <r>    1.5092   -0.0000 </r>
       <r>    2.7630   -0.0000 </r>
       <r>    4.1409   -0.0000 </r>
       <r>    4.5140   -0.0000 </r>
      </set>
      <set comment="kpoint 71">
       <r>    0.2156    1.0247 </r>
       <r>    0.8266   -0.0066 </r>
       <r>    3.2521   -0.0000 </r>
       <r>    3.8395   -0.0000 </r>
       <r>    4.6248   -0.0000 </r>
      </set>
      <set comment="kpoint 72">
       <r>    0.1205    1.0289 </r>
       <r>    1.7498   -0.0000 </r>
       <r>    2.1887   -0.0000 </r>
       <r>    3.7751   -0.0000 </r>
       <r>    4.5052   -0.0000 </r>
      </set>
      <set comment="kpoint 73">
       <r>    0.6390   -0.0335 </r>
       <r>    1.2340   -0.0000 </r>
       <r>    2.5204   -0.0000 </r>
       <r>    3.1006   -0.0000 </r>
       <r>    4.9726   -0.0000 </r>
      </set>
      <set comment="kpoint 74">
       <r>    1.1416   -0.0000 </r>
       <r>    1.5698   -0.0000 </r>
       <r>    2.0100   -0.0000 </r>
       <r>    2.4332   -0.0000 </r>
       <r>    5.3905   -0.0000 </r>
      </set>
      <set comment="kpoint 75">
       <r>   -0.4052    1.0000 </r>
       <r>    2.4253   -0.0000 </r>
       <r>    2.4253   -0.0000 </r>
       <r>    3.3024   -0.0000 </r>
       <r>    5.3580   -0.0000 </r>
      </set>
      <set comment="kpoint 76">
       <r>    0.0255    1.0095 </r>
       <r>    1.8183   -0.0000 </r>
       <r>    2.8306   -0.0000 </r>
       <r>    3.5372   -0.0000 </r>
       <r>    5.0908   -0.0000 </r>
      </set>
      <set comment="kpoint 77">
       <r>    0.5462    0.0561 </r>
       <r>    1.1506   -0.0000 </r>
       <r>    3.3264   -0.0000 </r>
       <r>    4.0002   -0.0000 </r>
       <r>    4.5487   -0.0000 </r>
      </set>
      <set comment="kpoint 78">
       <r>    0.4521    0.3455 </r>
       <r>    2.0645   -0.0000 </r>
       <r>    2.4528   -0.0000 </r>
       <r>    3.7026   -0.0000 </r>
       <r>    4.0333   -0.0000 </r>
      </set>
      <set comment="kpoint 79">
       <r>    0.9661   -0.0003 </r>
       <r>    1.5538   -0.0000 </r>
       <r>    2.8036   -0.0000 </r>
       <r>    3.3781   -0.0000 </r>
       <r>    4.1463   -0.0000 </r>
      </set>
      <set comment="kpoint 80">
       <r>    1.4633   -0.0000 </r>
       <r>    1.8843   -0.0000 </r>
       <r>    2.3219   -0.0000 </r>
       <r>    2.7380   -0.0000 </r>
       <r>    4.5413   -0.0000 </r>
      </set>
      <set comment="kpoint 81">
       <r>    0.8742   -0.0027 </r>
       <r>    2.4694   -0.0000 </r>
       <r>    2.4694   -0.0000 </r>
       <r>    3.3159   -0.0000 </r>
       <r>    4.2275   -0.0000 </r>
      </set>
      <set comment="kpoint 82">
       <r>    1.3810   -0.0000 </r>
       <r>    1.9533   -0.0000 </r>
       <r>    2.9648   -0.0000 </r>
       <r>    3.6133   -0.0000 </r>
       <r>    4.0476   -0.0000 </r>
      </set>
      <set comment="kpoint 83">
       <r>    1.8709   -0.0000 </r>
       <r>    2.2890   -0.0000 </r>
       <r>    2.6695   -0.0000 </r>
       <r>    3.0905   -0.0000 </r>
       <r>    3.8093   -0.0000 </r>
      </set>
      <set comment="kpoint 84">
       <r>    2.3498   -0.0000 </r>
       <r>    2.7841   -0.0000 </r>
       <r>    2.7841   -0.0000 </r>
       <r>    3.3699   -0.0000 </r>
       <r>    3.3962   -0.0000 </r>
      </set>
     </set>
    </set>
   </array>
  </eigenvalues>
  <separator name="orbital magnetization" >
   <v name="MAGDIPOLOUT">      0.00000000      0.00000000      0.00000000</v>
  </separator>
  <dos>
   <i name="efermi">      0.41485516 </i>
   <total>
    <array>
     <dimension dim="1">gridpoints</dimension>
     <dimension dim="2">spin</dimension>
     <field>energy</field>
     <field>total</field>
     <field>integrated</field>
     <set>
      <set comment="spin 1">
       <r>    -4.7548     0.0000     0.0000 </r>
       <r>    -4.7040     0.0000     0.0000 </r>
       <r>    -4.6532     0.0000     0.0000 </r>
       <r>    -4.6024     0.0000     0.0000 </r>
       <r>    -4.5516     0.0000     0.0000 </r>
       <r>    -4.5008     0.0000     0.0000 </r>
       <r>    -4.4500     0.0000     0.0000 </r>
       <r>    -4.3992    -0.0000    -0.0000 </r>
       <r>    -4.3485    -0.0000    -0.0000 </r>
       <r>    -4.2977    -0.0000    -0.0000 </r>
       <r>    -4.2469    -0.0000    -0.0000 </r>
       <r>    -4.1961    -0.0000    -0.0000 </r>
       <r>    -4.1453    -0.0000    -0.0000 </r>
       <r>    -4.0945    -0.0000    -0.0000 </r>
       <r>    -4.0437    -0.0000    -0.0000 </r>
       <r>    -3.9929    -0.0000    -0.0000 </r>
       <r>    -3.9421    -0.0000    -0.0000 </r>
       <r>    -3.8913    -0.0000    -0.0000 </r>
       <r>    -3.8405    -0.0000    -0.0000 </r>
       <r>    -3.7897    -0.0000    -0.0000 </r>
       <r>    -3.7389    -0.0000    -0.0000 </r>
       <r>    -3.6882    -0.0000    -0.0000 </r>
       <r>    -3.6374    -0.0000    -0.0000 </r>
       <r>    -3.5866    -0.0000    -0.0000 </r>
       <r>    -3.5358    -0.0000    -0.0000 </r>
       <r>    -3.4850    -0.0000    -0.0000 </r>
       <r>    -3.4342    -0.0000    -0.0000 </r>
       <r>    -3.3834    -0.0000    -0.0000 </r>
       <r>    -3.3326    -0.0000    -0.0000 </r>
       <r>    -3.2818    -0.0000    -0.0000 </r>
       <r>    -3.2310    -0.0001    -0.0000 </r>
       <r>    -3.1802    -0.0003    -0.0000 </r>
       <r>    -3.1294    -0.0009    -0.0001 </r>
       <r>    -3.0786    -0.0020    -0.0002 </r>
       <r>    -3.0279    -0.0037    -0.0004 </r>
       <r>    -2.9771    -0.0056    -0.0006 </r>
       <r>    -2.9263    -0.0062    -0.0010 </r>
       <r>    -2.8755    -0.0026    -0.0011 </r>
       <r>    -2.8247     0.0089    -0.0006 </r>
       <r>    -2.7739     0.0311     0.0009 </r>
       <r>    -2.7231     0.0644     0.0042 </r>
       <r>    -2.6723     0.1064     0.0096 </r>
       <r>    -2.6215     0.1521     0.0173 </r>
       <r>    -2.5707     0.1958     0.0273 </r>
       <r>    -2.5199     0.2325     0.0391 </r>
       <r>    -2.4691     0.2609     0.0523 </r>
       <r>    -2.4184     0.2845     0.0668 </r>
       <r>    -2.3676     0.3086     0.0825 </r>
       <r>    -2.3168     0.3356     0.0995 </r>
       <r>    -2.2660     0.3629     0.1179 </r>
       <r>    -2.2152     0.3846     0.1375 </r>
       <r>    -2.1644     0.3972     0.1577 </r>
       <r>    -2.1136     0.4022     0.1781 </r>
       <r>    -2.0628     0.4062     0.1987 </r>
       <r>    -2.0120     0.4182     0.2200 </r>
       <r>    -1.9612     0.4449     0.2426 </r>
       <r>    -1.9104     0.4841     0.2671 </r>
       <r>    -1.8596     0.5234     0.2937 </r>
       <r>    -1.8088     0.5461     0.3215 </r>
       <r>    -1.7581     0.5418     0.3490 </r>
       <r>    -1.7073     0.5163     0.3752 </r>
       <r>    -1.6565     0.4903     0.4001 </r>
       <r>    -1.6057     0.4887     0.4249 </r>
       <r>    -1.5549     0.5238     0.4515 </r>
       <r>    -1.5041     0.5860     0.4813 </r>
       <r>    -1.4533     0.6487     0.5143 </r>
       <r>    -1.4025     0.6855     0.5491 </r>
       <r>    -1.3517     0.6846     0.5839 </r>
       <r>    -1.3009     0.6534     0.6170 </r>
       <r>    -1.2501     0.6145     0.6483 </r>
       <r>    -1.1993     0.5935     0.6784 </r>
       <r>    -1.1485     0.6048     0.7091 </r>
       <r>    -1.0978     0.6422     0.7417 </r>
       <r>    -1.0470     0.6834     0.7765 </r>
       <r>    -0.9962     0.7083     0.8124 </r>
       <r>    -0.9454     0.7144     0.8487 </r>
       <r>    -0.8946     0.7174     0.8851 </r>
       <r>    -0.8438     0.7360     0.9225 </r>
       <r>    -0.7930     0.7749     0.9619 </r>
       <r>    -0.7422     0.8193     1.0035 </r>
       <r>    -0.6914     0.8456     1.0465 </r>
       <r>    -0.6406     0.8368     1.0890 </r>
       <r>    -0.5898     0.7926     1.1292 </r>
       <r>    -0.5390     0.7291     1.1662 </r>
       <r>    -0.4882     0.6742     1.2005 </r>
       <r>    -0.4375     0.6581     1.2339 </r>
       <r>    -0.3867     0.6993     1.2694 </r>
       <r>    -0.3359     0.7909     1.3096 </r>
       <r>    -0.2851     0.9019     1.3554 </r>
       <r>    -0.2343     0.9927     1.4058 </r>
       <r>    -0.1835     1.0350     1.4584 </r>
       <r>    -0.1327     1.0213     1.5103 </r>
       <r>    -0.0819     0.9642     1.5593 </r>
       <r>    -0.0311     0.8903     1.6045 </r>
       <r>     0.0197     0.8293     1.6466 </r>
       <r>     0.0705     0.8013     1.6873 </r>
       <r>     0.1213     0.8085     1.7284 </r>
       <r>     0.1721     0.8367     1.7709 </r>
       <r>     0.2228     0.8688     1.8150 </r>
       <r>     0.2736     0.8989     1.8606 </r>
       <r>     0.3244     0.9359     1.9082 </r>
       <r>     0.3752     0.9899     1.9585 </r>
       <r>     0.4260     1.0550     2.0120 </r>
       <r>     0.4768     1.1059     2.0682 </r>
       <r>     0.5276     1.1147     2.1248 </r>
       <r>     0.5784     1.0745     2.1794 </r>
       <r>     0.6292     1.0097     2.2307 </r>
       <r>     0.6800     0.9651     2.2797 </r>
       <r>     0.7308     0.9756     2.3293 </r>
       <r>     0.7816     1.0399     2.3821 </r>
       <r>     0.8323     1.1168     2.4388 </r>
       <r>     0.8831     1.1540     2.4974 </r>
       <r>     0.9339     1.1269     2.5547 </r>
       <r>     0.9847     1.0579     2.6084 </r>
       <r>     1.0355     1.0007     2.6592 </r>
       <r>     1.0863     1.0021     2.7101 </r>
       <r>     1.1371     1.0685     2.7644 </r>
       <r>     1.1879     1.1623     2.8234 </r>
       <r>     1.2387     1.2306     2.8859 </r>
       <r>     1.2895     1.2432     2.9491 </r>
       <r>     1.3403     1.2112     3.0106 </r>
       <r>     1.3911     1.1728     3.0702 </r>
       <r>     1.4419     1.1601     3.1291 </r>
       <r>     1.4926     1.1743     3.1887 </r>
       <r>     1.5434     1.1874     3.2491 </r>
       <r>     1.5942     1.1696     3.3085 </r>
       <r>     1.6450     1.1166     3.3652 </r>
       <r>     1.6958     1.0509     3.4185 </r>
       <r>     1.7466     0.9978     3.4692 </r>
       <r>     1.7974     0.9640     3.5182 </r>
       <r>     1.8482     0.9406     3.5660 </r>
       <r>     1.8990     0.9243     3.6129 </r>
       <r>     1.9498     0.9286     3.6601 </r>
       <r>     2.0006     0.9757     3.7096 </r>
       <r>     2.0514     1.0757     3.7643 </r>
       <r>     2.1022     1.2153     3.8260 </r>
       <r>     2.1529     1.3604     3.8951 </r>
       <r>     2.2037     1.4742     3.9700 </r>
       <r>     2.2545     1.5340     4.0479 </r>
       <r>     2.3053     1.5374     4.1260 </r>
       <r>     2.3561     1.4929     4.2018 </r>
       <r>     2.4069     1.4061     4.2732 </r>
       <r>     2.4577     1.2779     4.3381 </r>
       <r>     2.5085     1.1200     4.3950 </r>
       <r>     2.5593     0.9721     4.4444 </r>
       <r>     2.6101     0.8958     4.4899 </r>
       <r>     2.6609     0.9410     4.5377 </r>
       <r>     2.7117     1.1088     4.5940 </r>
       <r>     2.7625     1.3451     4.6623 </r>
       <r>     2.8132     1.5711     4.7421 </r>
       <r>     2.8640     1.7231     4.8297 </r>
       <r>     2.9148     1.7713     4.9196 </r>
       <r>     2.9656     1.7120     5.0066 </r>
       <r>     3.0164     1.5562     5.0856 </r>
       <r>     3.0672     1.3323     5.1533 </r>
       <r>     3.1180     1.0966     5.2090 </r>
       <r>     3.1688     0.9268     5.2561 </r>
       <r>     3.2196     0.8890     5.3012 </r>
       <r>     3.2704     0.9981     5.3519 </r>
       <r>     3.3212     1.2021     5.4130 </r>
       <r>     3.3720     1.4067     5.4844 </r>
       <r>     3.4228     1.5242     5.5618 </r>
       <r>     3.4735     1.5163     5.6389 </r>
       <r>     3.5243     1.4094     5.7105 </r>
       <r>     3.5751     1.2778     5.7754 </r>
       <r>     3.6259     1.2023     5.8364 </r>
       <r>     3.6767     1.2248     5.8986 </r>
       <r>     3.7275     1.3209     5.9657 </r>
       <r>     3.7783     1.4130     6.0375 </r>
       <r>     3.8291     1.4233     6.1098 </r>
       <r>     3.8799     1.3328     6.1775 </r>
       <r>     3.9307     1.1992     6.2384 </r>
       <r>     3.9815     1.1159     6.2951 </r>
       <r>     4.0323     1.1413     6.3530 </r>
       <r>     4.0831     1.2566     6.4169 </r>
       <r>     4.1338     1.3833     6.4871 </r>
       <r>     4.1846     1.4427     6.5604 </r>
       <r>     4.2354     1.4083     6.6319 </r>
       <r>     4.2862     1.3145     6.6987 </r>
       <r>     4.3370     1.2234     6.7608 </r>
       <r>     4.3878     1.1830     6.8209 </r>
       <r>     4.4386     1.2053     6.8821 </r>
       <r>     4.4894     1.2707     6.9467 </r>
       <r>     4.5402     1.3458     7.0150 </r>
       <r>     4.5910     1.3967     7.0860 </r>
       <r>     4.6418     1.3973     7.1570 </r>
       <r>     4.6926     1.3335     7.2247 </r>
       <r>     4.7433     1.2108     7.2862 </r>
       <r>     4.7941     1.0611     7.3401 </r>
       <r>     4.8449     0.9393     7.3878 </r>
       <r>     4.8957     0.9041     7.4337 </r>
       <r>     4.9465     0.9863     7.4838 </r>
       <r>     4.9973     1.1671     7.5431 </r>
       <r>     5.0481     1.3852     7.6134 </r>
       <r>     5.0989     1.5705     7.6932 </r>
       <r>     5.1497     1.6768     7.7784 </r>
       <r>     5.2005     1.6916     7.8643 </r>
       <r>     5.2513     1.6236     7.9468 </r>
       <r>     5.3021     1.4916     8.0225 </r>
       <r>     5.3529     1.3253     8.0898 </r>
       <r>     5.4036     1.1659     8.1491 </r>
       <r>     5.4544     1.0511     8.2024 </r>
       <r>     5.5052     0.9942     8.2529 </r>
       <r>     5.5560     0.9801     8.3027 </r>
       <r>     5.6068     0.9853     8.3528 </r>
       <r>     5.6576     1.0019     8.4037 </r>
       <r>     5.7084     1.0400     8.4565 </r>
       <r>     5.7592     1.1095     8.5128 </r>
       <r>     5.8100     1.2024     8.5739 </r>
       <r>     5.8608     1.2912     8.6395 </r>
       <r>     5.9116     1.3425     8.7077 </r>
       <r>     5.9624     1.3344     8.7755 </r>
       <r>     6.0132     1.2657     8.8398 </r>
       <r>     6.0639     1.1559     8.8985 </r>
       <r>     6.1147     1.0354     8.9511 </r>
       <r>     6.1655     0.9310     8.9983 </r>
       <r>     6.2163     0.8548     9.0418 </r>
       <r>     6.2671     0.8034     9.0826 </r>
       <r>     6.3179     0.7691     9.1216 </r>
       <r>     6.3687     0.7510     9.1598 </r>
       <r>     6.4195     0.7566     9.1982 </r>
       <r>     6.4703     0.7926     9.2385 </r>
       <r>     6.5211     0.8555     9.2819 </r>
       <r>     6.5719     0.9309     9.3292 </r>
       <r>     6.6227     0.9995     9.3800 </r>
       <r>     6.6735     1.0439     9.4330 </r>
       <r>     6.7242     1.0527     9.4865 </r>
       <r>     6.7750     1.0226     9.5384 </r>
       <r>     6.8258     0.9596     9.5871 </r>
       <r>     6.8766     0.8758     9.6316 </r>
       <r>     6.9274     0.7833     9.6714 </r>
       <r>     6.9782     0.6890     9.7064 </r>
       <r>     7.0290     0.5952     9.7366 </r>
       <r>     7.0798     0.5049     9.7623 </r>
       <r>     7.1306     0.4246     9.7838 </r>
       <r>     7.1814     0.3605     9.8022 </r>
       <r>     7.2322     0.3132     9.8181 </r>
       <r>     7.2830     0.2770     9.8321 </r>
       <r>     7.3338     0.2457     9.8446 </r>
       <r>     7.3845     0.2203     9.8558 </r>
       <r>     7.4353     0.2090     9.8664 </r>
       <r>     7.4861     0.2188     9.8775 </r>
       <r>     7.5369     0.2460     9.8900 </r>
       <r>     7.5877     0.2752     9.9040 </r>
       <r>     7.6385     0.2881     9.9186 </r>
       <r>     7.6893     0.2744     9.9326 </r>
       <r>     7.7401     0.2373     9.9446 </r>
       <r>     7.7909     0.1889     9.9542 </r>
       <r>     7.8417     0.1416     9.9614 </r>
       <r>     7.8925     0.1026     9.9666 </r>
       <r>     7.9433     0.0744     9.9704 </r>
       <r>     7.9940     0.0568     9.9733 </r>
       <r>     8.0448     0.0471     9.9757 </r>
       <r>     8.0956     0.0405     9.9777 </r>
       <r>     8.1464     0.0327     9.9794 </r>
       <r>     8.1972     0.0233     9.9806 </r>
       <r>     8.2480     0.0167     9.9814 </r>
       <r>     8.2988     0.0189     9.9824 </r>
       <r>     8.3496     0.0321     9.9840 </r>
       <r>     8.4004     0.0517     9.9866 </r>
       <r>     8.4512     0.0681     9.9901 </r>
       <r>     8.5020     0.0726     9.9938 </r>
       <r>     8.5528     0.0626     9.9970 </r>
       <r>     8.6036     0.0430     9.9992 </r>
       <r>     8.6543     0.0220    10.0003 </r>
       <r>     8.7051     0.0065    10.0006 </r>
       <r>     8.7559    -0.0016    10.0005 </r>
       <r>     8.8067    -0.0038    10.0003 </r>
       <r>     8.8575    -0.0032    10.0002 </r>
       <r>     8.9083    -0.0019    10.0001 </r>
       <r>     8.9591    -0.0009    10.0000 </r>
       <r>     9.0099    -0.0004    10.0000 </r>
       <r>     9.0607    -0.0001    10.0000 </r>
       <r>     9.1115    -0.0000    10.0000 </r>
       <r>     9.1623    -0.0000    10.0000 </r>
       <r>     9.2131    -0.0000    10.0000 </r>
       <r>     9.2639    -0.0000    10.0000 </r>
       <r>     9.3146    -0.0000    10.0000 </r>
       <r>     9.3654    -0.0000    10.0000 </r>
       <r>     9.4162    -0.0000    10.0000 </r>
       <r>     9.4670    -0.0000    10.0000 </r>
       <r>     9.5178    -0.0000    10.0000 </r>
       <r>     9.5686    -0.0000    10.0000 </r>
       <r>     9.6194    -0.0000    10.0000 </r>
       <r>     9.6702    -0.0000    10.0000 </r>
       <r>     9.7210    -0.0000    10.0000 </r>
       <r>     9.7718     0.0000    10.0000 </r>
       <r>     9.8226     0.0000    10.0000 </r>
       <r>     9.8734     0.0000    10.0000 </r>
       <r>     9.9242     0.0000    10.0000 </r>
       <r>     9.9749     0.0000    10.0000 </r>
       <r>    10.0257     0.0000    10.0000 </r>
       <r>    10.0765     0.0000    10.0000 </r>
       <r>    10.1273     0.0000    10.0000 </r>
       <r>    10.1781     0.0000    10.0000 </r>
       <r>    10.2289     0.0000    10.0000 </r>
       <r>    10.2797     0.0000    10.0000 </r>
       <r>    10.3305     0.0000    10.0000 </r>
       <r>    10.3813     0.0000    10.0000 </r>
       <r>    10.4321     0.0000    10.0000 </r>
       <r>    10.4829     0.0000    10.0000 </r>
      </set>
     </set>
    </array>
   </total>
  </dos>
 </calculation>
 <structure name="finalpos" >
  <crystal>
   <varray name="basis" >
    <v>       4.28200006       0.00000000       0.00000000 </v>
    <v>       0.00000000       4.28200006       0.00000000 </v>
    <v>       0.00000000       0.00000000       4.28200006 </v>
   </varray>
   <i name="volume">     78.51271733 </i>
   <varray name="rec_basis" >
    <v>       0.23353573       0.00000000       0.00000000 </v>
    <v>       0.00000000       0.23353573       0.00000000 </v>
    <v>       0.00000000       0.00000000       0.23353573 </v>
   </varray>
  </crystal>
  <varray name="positions" >
   <v>       0.00000000       0.00000000       0.00000000 </v>
   <v>       0.50000000       0.50000000       0.50000000 </v>
  </varray>
 </structure>
</modeling>
