unknown system                          
           1
     4.282000    0.000000    0.000000
     0.000000    4.282000    0.000000
     0.000000    0.000000    4.282000
   Na
     2
Direct configuration=     1
   0.00000000  0.00000000  0.00000000
   0.50000000  0.50000000  0.50000000
unknown system                          
           1
     4.259643    0.000000    0.000000
     0.000000    4.259643    0.000000
    -0.000000    0.000000    4.259643
   Na
     2
Direct configuration=     2
   0.00000000  0.00000000  0.00000000
   0.50000000  0.50000000  0.50000000
unknown system                          
           1
     4.192570    0.000000   -0.000000
     0.000000    4.192570   -0.000000
     0.000000    0.000000    4.192570
   Na
     2
Direct configuration=     3
   0.00000000 -0.00000000  0.00000000
   0.50000000  0.50000000  0.50000000
unknown system                          
           1
     4.192570    0.000000    0.000000
     0.000000    4.192570    0.000000
    -0.000000    0.000000    4.192570
   Na
     2
Direct configuration=     3
   0.00000000  0.00000000  0.00000000
   0.50000000  0.50000000  0.50000000
