unknown system                          
   1.0000000000000000     
     4.225496   -0.000000    0.000000
     0.000000    4.225496   -0.000000
    -0.000000    0.000000    4.225496
   Na
     2
Direct
  0.000000  0.000000  0.000000
  0.500000  0.500000  0.500000

   48   48   48
  1.0716      1.0545      1.0076     0.94357     0.88079     0.84036     0.84196     0.89934      1.0162      1.1839    
  1.3823      1.5848      1.7657      1.9070      2.0039      2.0631      2.0946      2.1081      2.1108      2.1074    
  2.1009      2.0932      2.0861      2.0812      2.0795      2.0812      2.0861      2.0932      2.1009      2.1074    
  2.1108      2.1081      2.0946      2.0631      2.0039      1.9070      1.7657      1.5848      1.3823      1.1839    
  1.0162     0.89934     0.84196     0.84036     0.88079     0.94357      1.0076      1.0545      1.0545      1.0381    
 0.99345     0.93276     0.87419     0.83840     0.84453     0.90582      1.0255      1.1945      1.3928      1.5940    
  1.7729      1.9120      2.0071      2.0650      2.0958      2.1088      2.1113      2.1077      2.1010      2.0933    
  2.0862      2.0813      2.0796      2.0813      2.0862      2.0933      2.1010      2.1077      2.1113      2.1088    
  2.0958      2.0650      2.0071      1.9120      1.7729      1.5940      1.3928      1.1945      1.0255     0.90582    
 0.84453     0.83840     0.87419     0.93276     0.99345      1.0381      1.0076     0.99345     0.95505     0.90410    
 0.85771     0.83523     0.85434     0.92668      1.0541      1.2266      1.4241      1.6211      1.7939      1.9265    
  2.0163      2.0706      2.0991      2.1108      2.1125      2.1085      2.1015      2.0936      2.0865      2.0816    
  2.0799      2.0816      2.0865      2.0936      2.1015      2.1085      2.1125      2.1108      2.0991      2.0706    
  2.0163      1.9265      1.7939      1.6211      1.4241      1.2266      1.0541     0.92668     0.85434     0.83523    
 0.85771     0.90410     0.95505     0.99345     0.94357     0.93276     0.90410     0.86822     0.84058     0.83844    
 0.87707     0.96563      1.1038      1.2804      1.4753      1.6646      1.8268      1.9489      2.0306      2.0792    
  2.1042      2.1139      2.1144      2.1097      2.1023      2.0942      2.0870      2.0821      2.0804      2.0821    
  2.0870      2.0942      2.1023      2.1097      2.1144      2.1139      2.1042      2.0792      2.0306      1.9489    
  1.8268      1.6646      1.4753      1.2804      1.1038     0.96563     0.87707     0.83844     0.84058     0.86822    
 0.90410     0.93276     0.88079     0.87419     0.85771     0.84058     0.83608     0.85870     0.92046      1.0273    
  1.1764      1.3552      1.5441      1.7215      1.8690      1.9772      2.0484      2.0899      2.1106      2.1178    
  2.1168      2.1111      2.1032      2.0948      2.0875      2.0827      2.0810      2.0827      2.0875      2.0948    
  2.1032      2.1111      2.1168      2.1178      2.1106      2.0899      2.0484      1.9772      1.8690      1.7215    
  1.5441      1.3552      1.1764      1.0273     0.92046     0.85870     0.83608     0.84058     0.85771     0.87419    
 0.84036     0.83840     0.83523     0.83844     0.85870     0.90708     0.99188      1.1155      1.2722      1.4489    
  1.6270      1.7877      1.9166      2.0087      2.0679      2.1016      2.1175      2.1219      2.1193      2.1126    
  2.1041      2.0954      2.0881      2.0833      2.0817      2.0833      2.0881      2.0954      2.1041      2.1126    
  2.1193      2.1219      2.1175      2.1016      2.0679      2.0087      1.9166      1.7877      1.6270      1.4489    
  1.2722      1.1155     0.99188     0.90708     0.85870     0.83844     0.83523     0.83840     0.84196     0.84453    
 0.85434     0.87707     0.92046     0.99188      1.0956      1.2305      1.3889      1.5570      1.7186      1.8581    
  1.9657      2.0405      2.0874      2.1131      2.1242      2.1259      2.1216      2.1140      2.1049      2.0960    
  2.0887      2.0841      2.0825      2.0841      2.0887      2.0960      2.1049      2.1140      2.1216      2.1259    
  2.1242      2.1131      2.0874      2.0405      1.9657      1.8581      1.7186      1.5570      1.3889      1.2305    
  1.0956     0.99188     0.92046     0.87707     0.85434     0.84453     0.89934     0.90582     0.92668     0.96563    
  1.0273      1.1155      1.2305      1.3685      1.5201      1.6726      1.8121      1.9270      2.0125      2.0703    
  2.1054      2.1236      2.1303      2.1294      2.1236      2.1150      2.1054      2.0965      2.0893      2.0848    
  2.0833      2.0848      2.0893      2.0965      2.1054      2.1150      2.1236      2.1294      2.1303      2.1236    
  2.1054      2.0703      2.0125      1.9270      1.8121      1.6726      1.5201      1.3685      1.2305      1.1155    
  1.0273     0.96563     0.92668     0.90582      1.0162      1.0255      1.0541      1.1038      1.1764      1.2722    
  1.3889      1.5201      1.6566      1.7869      1.9002      1.9896      2.0541      2.0963      2.1208      2.1325    
  2.1353      2.1320      2.1249      2.1156      2.1057      2.0968      2.0899      2.0856      2.0842      2.0856    
  2.0899      2.0968      2.1057      2.1156      2.1249      2.1320      2.1353      2.1325      2.1208      2.0963    
  2.0541      1.9896      1.9002      1.7869      1.6566      1.5201      1.3889      1.2722      1.1764      1.1038    
  1.0541      1.0255      1.1839      1.1945      1.2266      1.2804      1.3552      1.4489      1.5570      1.6726    
  1.7869      1.8906      1.9767      2.0424      2.0884      2.1173      2.1331      2.1394      2.1389      2.1337    
  2.1254      2.1156      2.1056      2.0969      2.0903      2.0863      2.0850      2.0863      2.0903      2.0969    
  2.1056      2.1156      2.1254      2.1337      2.1389      2.1394      2.1331      2.1173      2.0884      2.0424    
  1.9767      1.8906      1.7869      1.6726      1.5570      1.4489      1.3552      1.2804      1.2266      1.1945    
  1.3823      1.3928      1.4241      1.4753      1.5441      1.6270      1.7186      1.8121      1.9002      1.9767    
  2.0382      2.0838      2.1146      2.1330      2.1420      2.1440      2.1409      2.1342      2.1251      2.1150    
  2.1052      2.0968      2.0906      2.0869      2.0856      2.0869      2.0906      2.0968      2.1052      2.1150    
  2.1251      2.1342      2.1409      2.1440      2.1420      2.1330      2.1146      2.0838      2.0382      1.9767    
  1.9002      1.8121      1.7186      1.6270      1.5441      1.4753      1.4241      1.3928      1.5848      1.5940    
  1.6211      1.6646      1.7215      1.7877      1.8581      1.9270      1.9896      2.0424      2.0838      2.1136    
  2.1329      2.1435      2.1474      2.1462      2.1412      2.1334      2.1239      2.1138      2.1044      2.0965    
  2.0907      2.0872      2.0860      2.0872      2.0907      2.0965      2.1044      2.1138      2.1239      2.1334    
  2.1412      2.1462      2.1474      2.1435      2.1329      2.1136      2.0838      2.0424      1.9896      1.9270    
  1.8581      1.7877      1.7215      1.6646      1.6211      1.5940      1.7657      1.7729      1.7939      1.8268    
  1.8690      1.9166      1.9657      2.0125      2.0541      2.0884      2.1146      2.1329      2.1440      2.1492    
  2.1496      2.1461      2.1397      2.1312      2.1217      2.1121      2.1032      2.0959      2.0905      2.0873    
  2.0862      2.0873      2.0905      2.0959      2.1032      2.1121      2.1217      2.1312      2.1397      2.1461    
  2.1496      2.1492      2.1440      2.1329      2.1146      2.0884      2.0541      2.0125      1.9657      1.9166    
  1.8690      1.8268      1.7939      1.7729      1.9070      1.9120      1.9265      1.9489      1.9772      2.0087    
  2.0405      2.0703      2.0963      2.1173      2.1330      2.1435      2.1492      2.1507      2.1486      2.1436    
  2.1364      2.1278      2.1187      2.1097      2.1017      2.0950      2.0901      2.0871      2.0860      2.0871    
  2.0901      2.0950      2.1017      2.1097      2.1187      2.1278      2.1364      2.1436      2.1486      2.1507    
  2.1492      2.1435      2.1330      2.1173      2.0963      2.0703      2.0405      2.0087      1.9772      1.9489    
  1.9265      1.9120      2.0039      2.0071      2.0163      2.0306      2.0484      2.0679      2.0874      2.1054    
  2.1208      2.1331      2.1420      2.1474      2.1496      2.1486      2.1449      2.1390      2.1316      2.1234    
  2.1149      2.1069      2.0998      2.0938      2.0893      2.0866      2.0856      2.0866      2.0893      2.0938    
  2.0998      2.1069      2.1149      2.1234      2.1316      2.1390      2.1449      2.1486      2.1496      2.1474    
  2.1420      2.1331      2.1208      2.1054      2.0874      2.0679      2.0484      2.0306      2.0163      2.0071    
  2.0631      2.0650      2.0706      2.0792      2.0899      2.1016      2.1131      2.1236      2.1325      2.1394    
  2.1440      2.1462      2.1461      2.1436      2.1390      2.1329      2.1257      2.1181      2.1107      2.1037    
  2.0975      2.0923      2.0884      2.0858      2.0850      2.0858      2.0884      2.0923      2.0975      2.1037    
  2.1107      2.1181      2.1257      2.1329      2.1390      2.1436      2.1461      2.1462      2.1440      2.1394    
  2.1325      2.1236      2.1131      2.1016      2.0899      2.0792      2.0706      2.0650      2.0946      2.0958    
  2.0991      2.1042      2.1106      2.1175      2.1242      2.1303      2.1353      2.1389      2.1409      2.1412    
  2.1397      2.1364      2.1316      2.1257      2.1192      2.1125      2.1061      2.1003      2.0950      2.0906    
  2.0871      2.0849      2.0842      2.0849      2.0871      2.0906      2.0950      2.1003      2.1061      2.1125    
  2.1192      2.1257      2.1316      2.1364      2.1397      2.1412      2.1409      2.1389      2.1353      2.1303    
  2.1242      2.1175      2.1106      2.1042      2.0991      2.0958      2.1081      2.1088      2.1108      2.1139    
  2.1178      2.1219      2.1259      2.1294      2.1320      2.1337      2.1342      2.1334      2.1312      2.1278    
  2.1234      2.1181      2.1125      2.1069      2.1016      2.0967      2.0924      2.0887      2.0858      2.0840    
  2.0833      2.0840      2.0858      2.0887      2.0924      2.0967      2.1016      2.1069      2.1125      2.1181    
  2.1234      2.1278      2.1312      2.1334      2.1342      2.1337      2.1320      2.1294      2.1259      2.1219    
  2.1178      2.1139      2.1108      2.1088      2.1108      2.1113      2.1125      2.1144      2.1168      2.1193    
  2.1216      2.1236      2.1249      2.1254      2.1251      2.1239      2.1217      2.1187      2.1149      2.1107    
  2.1061      2.1016      2.0973      2.0933      2.0898      2.0868      2.0845      2.0830      2.0825      2.0830    
  2.0845      2.0868      2.0898      2.0933      2.0973      2.1016      2.1061      2.1107      2.1149      2.1187    
  2.1217      2.1239      2.1251      2.1254      2.1249      2.1236      2.1216      2.1193      2.1168      2.1144    
  2.1125      2.1113      2.1074      2.1077      2.1085      2.1097      2.1111      2.1126      2.1140      2.1150    
  2.1156      2.1156      2.1150      2.1138      2.1121      2.1097      2.1069      2.1037      2.1003      2.0967    
  2.0933      2.0902      2.0874      2.0850      2.0832      2.0821      2.0817      2.0821      2.0832      2.0850    
  2.0874      2.0902      2.0933      2.0967      2.1003      2.1037      2.1069      2.1097      2.1121      2.1138    
  2.1150      2.1156      2.1156      2.1150      2.1140      2.1126      2.1111      2.1097      2.1085      2.1077    
  2.1009      2.1010      2.1015      2.1023      2.1032      2.1041      2.1049      2.1054      2.1057      2.1056    
  2.1052      2.1044      2.1032      2.1017      2.0998      2.0975      2.0950      2.0924      2.0898      2.0874    
  2.0852      2.0834      2.0821      2.0812      2.0810      2.0812      2.0821      2.0834      2.0852      2.0874    
  2.0898      2.0924      2.0950      2.0975      2.0998      2.1017      2.1032      2.1044      2.1052      2.1056    
  2.1057      2.1054      2.1049      2.1041      2.1032      2.1023      2.1015      2.1010      2.0932      2.0933    
  2.0936      2.0942      2.0948      2.0954      2.0960      2.0965      2.0968      2.0969      2.0968      2.0965    
  2.0959      2.0950      2.0938      2.0923      2.0906      2.0887      2.0868      2.0850      2.0834      2.0821    
  2.0811      2.0806      2.0804      2.0806      2.0811      2.0821      2.0834      2.0850      2.0868      2.0887    
  2.0906      2.0923      2.0938      2.0950      2.0959      2.0965      2.0968      2.0969      2.0968      2.0965    
  2.0960      2.0954      2.0948      2.0942      2.0936      2.0933      2.0861      2.0862      2.0865      2.0870    
  2.0875      2.0881      2.0887      2.0893      2.0899      2.0903      2.0906      2.0907      2.0905      2.0901    
  2.0893      2.0884      2.0871      2.0858      2.0845      2.0832      2.0821      2.0811      2.0805      2.0800    
  2.0799      2.0800      2.0805      2.0811      2.0821      2.0832      2.0845      2.0858      2.0871      2.0884    
  2.0893      2.0901      2.0905      2.0907      2.0906      2.0903      2.0899      2.0893      2.0887      2.0881    
  2.0875      2.0870      2.0865      2.0862      2.0812      2.0813      2.0816      2.0821      2.0827      2.0833    
  2.0841      2.0848      2.0856      2.0863      2.0869      2.0872      2.0873      2.0871      2.0866      2.0858    
  2.0849      2.0840      2.0830      2.0821      2.0812      2.0806      2.0800      2.0797      2.0796      2.0797    
  2.0800      2.0806      2.0812      2.0821      2.0830      2.0840      2.0849      2.0858      2.0866      2.0871    
  2.0873      2.0872      2.0869      2.0863      2.0856      2.0848      2.0841      2.0833      2.0827      2.0821    
  2.0816      2.0813      2.0795      2.0796      2.0799      2.0804      2.0810      2.0817      2.0825      2.0833    
  2.0842      2.0850      2.0856      2.0860      2.0862      2.0860      2.0856      2.0850      2.0842      2.0833    
  2.0825      2.0817      2.0810      2.0804      2.0799      2.0796      2.0795      2.0796      2.0799      2.0804    
  2.0810      2.0817      2.0825      2.0833      2.0842      2.0850      2.0856      2.0860      2.0862      2.0860    
  2.0856      2.0850      2.0842      2.0833      2.0825      2.0817      2.0810      2.0804      2.0799      2.0796    
  2.0812      2.0813      2.0816      2.0821      2.0827      2.0833      2.0841      2.0848      2.0856      2.0863    
  2.0869      2.0872      2.0873      2.0871      2.0866      2.0858      2.0849      2.0840      2.0830      2.0821    
  2.0812      2.0806      2.0800      2.0797      2.0796      2.0797      2.0800      2.0806      2.0812      2.0821    
  2.0830      2.0840      2.0849      2.0858      2.0866      2.0871      2.0873      2.0872      2.0869      2.0863    
  2.0856      2.0848      2.0841      2.0833      2.0827      2.0821      2.0816      2.0813      2.0861      2.0862    
  2.0865      2.0870      2.0875      2.0881      2.0887      2.0893      2.0899      2.0903      2.0906      2.0907    
  2.0905      2.0901      2.0893      2.0884      2.0871      2.0858      2.0845      2.0832      2.0821      2.0811    
  2.0805      2.0800      2.0799      2.0800      2.0805      2.0811      2.0821      2.0832      2.0845      2.0858    
  2.0871      2.0884      2.0893      2.0901      2.0905      2.0907      2.0906      2.0903      2.0899      2.0893    
  2.0887      2.0881      2.0875      2.0870      2.0865      2.0862      2.0932      2.0933      2.0936      2.0942    
  2.0948      2.0954      2.0960      2.0965      2.0968      2.0969      2.0968      2.0965      2.0959      2.0950    
  2.0938      2.0923      2.0906      2.0887      2.0868      2.0850      2.0834      2.0821      2.0811      2.0806    
  2.0804      2.0806      2.0811      2.0821      2.0834      2.0850      2.0868      2.0887      2.0906      2.0923    
  2.0938      2.0950      2.0959      2.0965      2.0968      2.0969      2.0968      2.0965      2.0960      2.0954    
  2.0948      2.0942      2.0936      2.0933      2.1009      2.1010      2.1015      2.1023      2.1032      2.1041    
  2.1049      2.1054      2.1057      2.1056      2.1052      2.1044      2.1032      2.1017      2.0998      2.0975    
  2.0950      2.0924      2.0898      2.0874      2.0852      2.0834      2.0821      2.0812      2.0810      2.0812    
  2.0821      2.0834      2.0852      2.0874      2.0898      2.0924      2.0950      2.0975      2.0998      2.1017    
  2.1032      2.1044      2.1052      2.1056      2.1057      2.1054      2.1049      2.1041      2.1032      2.1023    
  2.1015      2.1010      2.1074      2.1077      2.1085      2.1097      2.1111      2.1126      2.1140      2.1150    
  2.1156      2.1156      2.1150      2.1138      2.1121      2.1097      2.1069      2.1037      2.1003      2.0967    
  2.0933      2.0902      2.0874      2.0850      2.0832      2.0821      2.0817      2.0821      2.0832      2.0850    
  2.0874      2.0902      2.0933      2.0967      2.1003      2.1037      2.1069      2.1097      2.1121      2.1138    
  2.1150      2.1156      2.1156      2.1150      2.1140      2.1126      2.1111      2.1097      2.1085      2.1077    
  2.1108      2.1113      2.1125      2.1144      2.1168      2.1193      2.1216      2.1236      2.1249      2.1254    
  2.1251      2.1239      2.1217      2.1187      2.1149      2.1107      2.1061      2.1016      2.0973      2.0933    
  2.0898      2.0868      2.0845      2.0830      2.0825      2.0830      2.0845      2.0868      2.0898      2.0933    
  2.0973      2.1016      2.1061      2.1107      2.1149      2.1187      2.1217      2.1239      2.1251      2.1254    
  2.1249      2.1236      2.1216      2.1193      2.1168      2.1144      2.1125      2.1113      2.1081      2.1088    
  2.1108      2.1139      2.1178      2.1219      2.1259      2.1294      2.1320      2.1337      2.1342      2.1334    
  2.1312      2.1278      2.1234      2.1181      2.1125      2.1069      2.1016      2.0967      2.0924      2.0887    
  2.0858      2.0840      2.0833      2.0840      2.0858      2.0887      2.0924      2.0967      2.1016      2.1069    
  2.1125      2.1181      2.1234      2.1278      2.1312      2.1334      2.1342      2.1337      2.1320      2.1294    
  2.1259      2.1219      2.1178      2.1139      2.1108      2.1088      2.0946      2.0958      2.0991      2.1042    
  2.1106      2.1175      2.1242      2.1303      2.1353      2.1389      2.1409      2.1412      2.1397      2.1364    
  2.1316      2.1257      2.1192      2.1125      2.1061      2.1003      2.0950      2.0906      2.0871      2.0849    
  2.0842      2.0849      2.0871      2.0906      2.0950      2.1003      2.1061      2.1125      2.1192      2.1257    
  2.1316      2.1364      2.1397      2.1412      2.1409      2.1389      2.1353      2.1303      2.1242      2.1175    
  2.1106      2.1042      2.0991      2.0958      2.0631      2.0650      2.0706      2.0792      2.0899      2.1016    
  2.1131      2.1236      2.1325      2.1394      2.1440      2.1462      2.1461      2.1436      2.1390      2.1329    
  2.1257      2.1181      2.1107      2.1037      2.0975      2.0923      2.0884      2.0858      2.0850      2.0858    
  2.0884      2.0923      2.0975      2.1037      2.1107      2.1181      2.1257      2.1329      2.1390      2.1436    
  2.1461      2.1462      2.1440      2.1394      2.1325      2.1236      2.1131      2.1016      2.0899      2.0792    
  2.0706      2.0650      2.0039      2.0071      2.0163      2.0306      2.0484      2.0679      2.0874      2.1054    
  2.1208      2.1331      2.1420      2.1474      2.1496      2.1486      2.1449      2.1390      2.1316      2.1234    
  2.1149      2.1069      2.0998      2.0938      2.0893      2.0866      2.0856      2.0866      2.0893      2.0938    
  2.0998      2.1069      2.1149      2.1234      2.1316      2.1390      2.1449      2.1486      2.1496      2.1474    
  2.1420      2.1331      2.1208      2.1054      2.0874      2.0679      2.0484      2.0306      2.0163      2.0071    
  1.9070      1.9120      1.9265      1.9489      1.9772      2.0087      2.0405      2.0703      2.0963      2.1173    
  2.1330      2.1435      2.1492      2.1507      2.1486      2.1436      2.1364      2.1278      2.1187      2.1097    
  2.1017      2.0950      2.0901      2.0871      2.0860      2.0871      2.0901      2.0950      2.1017      2.1097    
  2.1187      2.1278      2.1364      2.1436      2.1486      2.1507      2.1492      2.1435      2.1330      2.1173    
  2.0963      2.0703      2.0405      2.0087      1.9772      1.9489      1.9265      1.9120      1.7657      1.7729    
  1.7939      1.8268      1.8690      1.9166      1.9657      2.0125      2.0541      2.0884      2.1146      2.1329    
  2.1440      2.1492      2.1496      2.1461      2.1397      2.1312      2.1217      2.1121      2.1032      2.0959    
  2.0905      2.0873      2.0862      2.0873      2.0905      2.0959      2.1032      2.1121      2.1217      2.1312    
  2.1397      2.1461      2.1496      2.1492      2.1440      2.1329      2.1146      2.0884      2.0541      2.0125    
  1.9657      1.9166      1.8690      1.8268      1.7939      1.7729      1.5848      1.5940      1.6211      1.6646    
  1.7215      1.7877      1.8581      1.9270      1.9896      2.0424      2.0838      2.1136      2.1329      2.1435    
  2.1474      2.1462      2.1412      2.1334      2.1239      2.1138      2.1044      2.0965      2.0907      2.0872    
  2.0860      2.0872      2.0907      2.0965      2.1044      2.1138      2.1239      2.1334      2.1412      2.1462    
  2.1474      2.1435      2.1329      2.1136      2.0838      2.0424      1.9896      1.9270      1.8581      1.7877    
  1.7215      1.6646      1.6211      1.5940      1.3823      1.3928      1.4241      1.4753      1.5441      1.6270    
  1.7186      1.8121      1.9002      1.9767      2.0382      2.0838      2.1146      2.1330      2.1420      2.1440    
  2.1409      2.1342      2.1251      2.1150      2.1052      2.0968      2.0906      2.0869      2.0856      2.0869    
  2.0906      2.0968      2.1052      2.1150      2.1251      2.1342      2.1409      2.1440      2.1420      2.1330    
  2.1146      2.0838      2.0382      1.9767      1.9002      1.8121      1.7186      1.6270      1.5441      1.4753    
  1.4241      1.3928      1.1839      1.1945      1.2266      1.2804      1.3552      1.4489      1.5570      1.6726    
  1.7869      1.8906      1.9767      2.0424      2.0884      2.1173      2.1331      2.1394      2.1389      2.1337    
  2.1254      2.1156      2.1056      2.0969      2.0903      2.0863      2.0850      2.0863      2.0903      2.0969    
  2.1056      2.1156      2.1254      2.1337      2.1389      2.1394      2.1331      2.1173      2.0884      2.0424    
  1.9767      1.8906      1.7869      1.6726      1.5570      1.4489      1.3552      1.2804      1.2266      1.1945    
  1.0162      1.0255      1.0541      1.1038      1.1764      1.2722      1.3889      1.5201      1.6566      1.7869    
  1.9002      1.9896      2.0541      2.0963      2.1208      2.1325      2.1353      2.1320      2.1249      2.1156    
  2.1057      2.0968      2.0899      2.0856      2.0842      2.0856      2.0899      2.0968      2.1057      2.1156    
  2.1249      2.1320      2.1353      2.1325      2.1208      2.0963      2.0541      1.9896      1.9002      1.7869    
  1.6566      1.5201      1.3889      1.2722      1.1764      1.1038      1.0541      1.0255     0.89934     0.90582    
 0.92668     0.96563      1.0273      1.1155      1.2305      1.3685      1.5201      1.6726      1.8121      1.9270    
  2.0125      2.0703      2.1054      2.1236      2.1303      2.1294      2.1236      2.1150      2.1054      2.0965    
  2.0893      2.0848      2.0833      2.0848      2.0893      2.0965      2.1054      2.1150      2.1236      2.1294    
  2.1303      2.1236      2.1054      2.0703      2.0125      1.9270      1.8121      1.6726      1.5201      1.3685    
  1.2305      1.1155      1.0273     0.96563     0.92668     0.90582     0.84196     0.84453     0.85434     0.87707    
 0.92046     0.99188      1.0956      1.2305      1.3889      1.5570      1.7186      1.8581      1.9657      2.0405    
  2.0874      2.1131      2.1242      2.1259      2.1216      2.1140      2.1049      2.0960      2.0887      2.0841    
  2.0825      2.0841      2.0887      2.0960      2.1049      2.1140      2.1216      2.1259      2.1242      2.1131    
  2.0874      2.0405      1.9657      1.8581      1.7186      1.5570      1.3889      1.2305      1.0956     0.99188    
 0.92046     0.87707     0.85434     0.84453     0.84036     0.83840     0.83523     0.83844     0.85870     0.90708    
 0.99188      1.1155      1.2722      1.4489      1.6270      1.7877      1.9166      2.0087      2.0679      2.1016    
  2.1175      2.1219      2.1193      2.1126      2.1041      2.0954      2.0881      2.0833      2.0817      2.0833    
  2.0881      2.0954      2.1041      2.1126      2.1193      2.1219      2.1175      2.1016      2.0679      2.0087    
  1.9166      1.7877      1.6270      1.4489      1.2722      1.1155     0.99188     0.90708     0.85870     0.83844    
 0.83523     0.83840     0.88079     0.87419     0.85771     0.84058     0.83608     0.85870     0.92046      1.0273    
  1.1764      1.3552      1.5441      1.7215      1.8690      1.9772      2.0484      2.0899      2.1106      2.1178    
  2.1168      2.1111      2.1032      2.0948      2.0875      2.0827      2.0810      2.0827      2.0875      2.0948    
  2.1032      2.1111      2.1168      2.1178      2.1106      2.0899      2.0484      1.9772      1.8690      1.7215    
  1.5441      1.3552      1.1764      1.0273     0.92046     0.85870     0.83608     0.84058     0.85771     0.87419    
 0.94357     0.93276     0.90410     0.86822     0.84058     0.83844     0.87707     0.96563      1.1038      1.2804    
  1.4753      1.6646      1.8268      1.9489      2.0306      2.0792      2.1042      2.1139      2.1144      2.1097    
  2.1023      2.0942      2.0870      2.0821      2.0804      2.0821      2.0870      2.0942      2.1023      2.1097    
  2.1144      2.1139      2.1042      2.0792      2.0306      1.9489      1.8268      1.6646      1.4753      1.2804    
  1.1038     0.96563     0.87707     0.83844     0.84058     0.86822     0.90410     0.93276      1.0076     0.99345    
 0.95505     0.90410     0.85771     0.83523     0.85434     0.92668      1.0541      1.2266      1.4241      1.6211    
  1.7939      1.9265      2.0163      2.0706      2.0991      2.1108      2.1125      2.1085      2.1015      2.0936    
  2.0865      2.0816      2.0799      2.0816      2.0865      2.0936      2.1015      2.1085      2.1125      2.1108    
  2.0991      2.0706      2.0163      1.9265      1.7939      1.6211      1.4241      1.2266      1.0541     0.92668    
 0.85434     0.83523     0.85771     0.90410     0.95505     0.99345      1.0545      1.0381     0.99345     0.93276    
 0.87419     0.83840     0.84453     0.90582      1.0255      1.1945      1.3928      1.5940      1.7729      1.9120    
  2.0071      2.0650      2.0958      2.1088      2.1113      2.1077      2.1010      2.0933      2.0862      2.0813    
  2.0796      2.0813      2.0862      2.0933      2.1010      2.1077      2.1113      2.1088      2.0958      2.0650    
  2.0071      1.9120      1.7729      1.5940      1.3928      1.1945      1.0255     0.90582     0.84453     0.83840    
 0.87419     0.93276     0.99345      1.0381      1.0545      1.0381     0.99345     0.93276     0.87419     0.83840    
 0.84453     0.90582      1.0255      1.1945      1.3928      1.5940      1.7729      1.9120      2.0071      2.0650    
  2.0958      2.1088      2.1113      2.1077      2.1010      2.0933      2.0862      2.0813      2.0796      2.0813    
  2.0862      2.0933      2.1010      2.1077      2.1113      2.1088      2.0958      2.0650      2.0071      1.9120    
  1.7729      1.5940      1.3928      1.1945      1.0255     0.90582     0.84453     0.83840     0.87419     0.93276    
 0.99345      1.0381      1.0381      1.0225     0.97997     0.92259     0.86816     0.83690     0.84746     0.91256    
  1.0349      1.2052      1.4033      1.6031      1.7800      1.9169      2.0102      2.0669      2.0969      2.1095    
  2.1117      2.1080      2.1012      2.0934      2.0863      2.0814      2.0797      2.0814      2.0863      2.0934    
  2.1012      2.1080      2.1117      2.1095      2.0969      2.0669      2.0102      1.9169      1.7800      1.6031    
  1.4033      1.2052      1.0349     0.91256     0.84746     0.83690     0.86816     0.92259     0.97997      1.0225    
 0.99345     0.97997     0.94359     0.89578     0.85329     0.83507     0.85829     0.93410      1.0639      1.2374    
  1.4345      1.6300      1.8007      1.9311      2.0193      2.0724      2.1002      2.1115      2.1129      2.1088    
  2.1017      2.0938      2.0867      2.0818      2.0800      2.0818      2.0867      2.0938      2.1017      2.1088    
  2.1129      2.1115      2.1002      2.0724      2.0193      1.9311      1.8007      1.6300      1.4345      1.2374    
  1.0639     0.93410     0.85829     0.83507     0.85329     0.89578     0.94359     0.97997     0.93276     0.92259    