unknown system                          
   1.0000000000000000     
     4.055985   -0.000000    0.000000
     0.000000    4.055985   -0.000000
    -0.000000    0.000000    4.055985
   Na
     2
Direct
  0.000000 -0.000000 -0.000000
  0.500000  0.500000  0.500000

   48   48   48
 0.11157360465E+01 0.10989915735E+01 0.10523099492E+01 0.98585970143E+00 0.91498289308E+00
 0.85788307407E+00 0.83264443595E+00 0.85388270311E+00 0.92946143715E+00 0.10579812377E+01
 0.12280424081E+01 0.14201433837E+01 0.16111713519E+01 0.17801133786E+01 0.19132159671E+01
 0.20087559897E+01 0.20727403781E+01 0.21134532154E+01 0.21385493323E+01 0.21535693100E+01
 0.21619348606E+01 0.21657784356E+01 0.21667893712E+01 0.21665485025E+01 0.21663060815E+01
 0.21665485025E+01 0.21667893712E+01 0.21657784356E+01 0.21619348606E+01 0.21535693100E+01
 0.21385493323E+01 0.21134532154E+01 0.20727403781E+01 0.20087559897E+01 0.19132159671E+01
 0.17801133786E+01 0.16111713519E+01 0.14201433837E+01 0.12280424081E+01 0.10579812377E+01
 0.92946143715E+00 0.85388270311E+00 0.83264443595E+00 0.85788307407E+00 0.91498289308E+00
 0.98585970143E+00 0.10523099492E+01 0.10989915735E+01 0.10989915735E+01 0.10828420042E+01
 0.10378980597E+01 0.97418745869E+00 0.90682097619E+00 0.85369121284E+00 0.83251107063E+00
 0.85749275327E+00 0.93610647218E+00 0.10666333239E+01 0.12375056682E+01 0.14292655643E+01
 0.16190560387E+01 0.17862568630E+01 0.19175807559E+01 0.20116943233E+01 0.20746612482E+01
 0.21147076754E+01 0.21393848247E+01 0.21541379209E+01 0.21623268492E+01 0.21660535765E+01
 0.21669932029E+01 0.21667160303E+01 0.21664628727E+01 0.21667160303E+01 0.21669932029E+01
 0.21660535765E+01 0.21623268492E+01 0.21541379209E+01 0.21393848247E+01 0.21147076754E+01
 0.20746612482E+01 0.20116943233E+01 0.19175807559E+01 0.17862568630E+01 0.16190560387E+01
 0.14292655643E+01 0.12375056682E+01 0.10666333239E+01 0.93610647219E+00 0.85749275327E+00
 0.83251107063E+00 0.85369121284E+00 0.90682097619E+00 0.97418745869E+00 0.10378980597E+01
 0.10828420042E+01 0.10523099492E+01 0.10378980597E+01 0.99802574163E+00 0.94229866529E+00
 0.88513802430E+00 0.84351354799E+00 0.83404020303E+00 0.86974239987E+00 0.95694234700E+00
 0.10930050756E+01 0.12659064444E+01 0.14563579953E+01 0.16422856741E+01 0.18042334229E+01
 0.19303080644E+01 0.20202521249E+01 0.20802615235E+01 0.21183771211E+01 0.21418401637E+01
 0.21558169290E+01 0.21634896510E+01 0.21668743320E+01 0.21676059184E+01 0.21672236016E+01
 0.21669395610E+01 0.21672236016E+01 0.21676059184E+01 0.21668743320E+01 0.21634896510E+01
 0.21558169290E+01 0.21418401637E+01 0.21183771211E+01 0.20802615235E+01 0.20202521249E+01
 0.19303080644E+01 0.18042334229E+01 0.16422856741E+01 0.14563579953E+01 0.12659064444E+01
 0.10930050756E+01 0.95694234700E+00 0.86974239987E+00 0.83404020303E+00 0.84351354799E+00
 0.88513802430E+00 0.94229866529E+00 0.99802574163E+00 0.10378980597E+01 0.98585970143E+00
 0.97418745869E+00 0.94229866529E+00 0.89910034050E+00 0.85788131756E+00 0.83410739327E+00
 0.84261699735E+00 0.89453184937E+00 0.99436959185E+00 0.11381099586E+01 0.13131205197E+01
 0.15005143099E+01 0.16795623401E+01 0.18326957965E+01 0.19503368980E+01 0.20336900380E+01
 0.20890735467E+01 0.21241867154E+01 0.21457599653E+01 0.21585190131E+01 0.21653752954E+01
 0.21682184911E+01 0.21686238950E+01 0.21680796773E+01 0.21677488746E+01 0.21680796773E+01
 0.21686238950E+01 0.21682184911E+01 0.21653752954E+01 0.21585190131E+01 0.21457599653E+01
 0.21241867154E+01 0.20890735467E+01 0.20336900380E+01 0.19503368980E+01 0.18326957965E+01
 0.16795623401E+01 0.15005143099E+01 0.13131205197E+01 0.11381099586E+01 0.99436959185E+00
 0.89453184937E+00 0.84261699735E+00 0.83410739327E+00 0.85788131756E+00 0.89910034050E+00
 0.94229866529E+00 0.97418745869E+00 0.91498289308E+00 0.90682097619E+00 0.88513802430E+00
 0.85788131756E+00 0.83679702144E+00 0.83532048826E+00 0.86591761974E+00 0.93721347720E+00
 0.10514335427E+01 0.12029120497E+01 0.13784651425E+01 0.15599828550E+01 0.17286675363E+01
 0.18694963869E+01 0.19760344819E+01 0.20508832966E+01 0.21003835813E+01 0.21317052044E+01
 0.21508844774E+01 0.21620827257E+01 0.21678822436E+01 0.21700270129E+01 0.21700204087E+01
 0.21692788648E+01 0.21688929562E+01 0.21692788648E+01 0.21700204087E+01 0.21700270129E+01
 0.21678822436E+01 0.21620827257E+01 0.21508844774E+01 0.21317052044E+01 0.21003835813E+01
 0.20508832966E+01 0.19760344819E+01 0.18694963869E+01 0.17286675363E+01 0.15599828550E+01
 0.13784651425E+01 0.12029120497E+01 0.10514335427E+01 0.93721347720E+00 0.86591761974E+00
 0.83532048826E+00 0.83679702144E+00 0.85788131756E+00 0.88513802430E+00 0.90682097619E+00
 0.85788307407E+00 0.85369121284E+00 0.84351354799E+00 0.83410739327E+00 0.83532048826E+00
 0.85811551306E+00 0.91211564460E+00 0.10030377056E+01 0.11305703917E+01 0.12874184104E+01
 0.14601471814E+01 0.16319309649E+01 0.17864610781E+01 0.19119235734E+01 0.20053976829E+01
 0.20704768166E+01 0.21133290238E+01 0.21403923245E+01 0.21568632891E+01 0.21662677139E+01
 0.21708421449E+01 0.21721869628E+01 0.21717261526E+01 0.21707806128E+01 0.21703413268E+01
 0.21707806128E+01 0.21717261526E+01 0.21721869628E+01 0.21708421449E+01 0.21662677139E+01
 0.21568632891E+01 0.21403923245E+01 0.21133290238E+01 0.20704768166E+01 0.20053976829E+01
 0.19119235734E+01 0.17864610781E+01 0.16319309649E+01 0.14601471814E+01 0.12874184104E+01
 0.11305703917E+01 0.10030377056E+01 0.91211564460E+00 0.85811551306E+00 0.83532048826E+00
 0.83410739327E+00 0.84351354799E+00 0.85369121284E+00 0.83264443595E+00 0.83251107063E+00
 0.83404020303E+00 0.84261699735E+00 0.86591761974E+00 0.91211564460E+00 0.98770528907E+00
 0.10953361936E+01 0.12322224238E+01 0.13897611459E+01 0.15547881478E+01 0.17123293154E+01
 0.18490091125E+01 0.19569923457E+01 0.20363114640E+01 0.20910746345E+01 0.21270181302E+01
 0.21496655039E+01 0.21632893650E+01 0.21707714101E+01 0.21740268167E+01 0.21745307097E+01
 0.21736208029E+01 0.21724946637E+01 0.21720139634E+01 0.21724946637E+01 0.21736208029E+01
 0.21745307097E+01 0.21740268167E+01 0.21707714101E+01 0.21632893650E+01 0.21496655039E+01
 0.21270181302E+01 0.20910746345E+01 0.20363114640E+01 0.19569923457E+01 0.18490091125E+01
 0.17123293154E+01 0.15547881478E+01 0.13897611459E+01 0.12322224238E+01 0.10953361936E+01
 0.98770528907E+00 0.91211564460E+00 0.86591761974E+00 0.84261699735E+00 0.83404020303E+00
 0.83251107063E+00 0.85388270311E+00 0.85749275327E+00 0.86974239987E+00 0.89453184937E+00
 0.93721347720E+00 0.10030377056E+01 0.10953361936E+01 0.12138467803E+01 0.13537032735E+01
 0.15055885185E+01 0.16572561170E+01 0.17960900361E+01 0.19121096657E+01 0.20017909353E+01
 0.20668160375E+01 0.21114195918E+01 0.21406408999E+01 0.21589682018E+01 0.21697463310E+01
 0.21752667842E+01 0.21771789498E+01 0.21768575898E+01 0.21755441488E+01 0.21742835461E+01
 0.21737804587E+01 0.21742835461E+01 0.21755441488E+01 0.21768575898E+01 0.21771789498E+01
 0.21752667842E+01 0.21697463310E+01 0.21589682018E+01 0.21406408999E+01 0.21114195918E+01
 0.20668160375E+01 0.20017909353E+01 0.19121096657E+01 0.17960900361E+01 0.16572561170E+01
 0.15055885185E+01 0.13537032735E+01 0.12138467803E+01 0.10953361936E+01 0.10030377056E+01
 0.93721347720E+00 0.89453184937E+00 0.86974239987E+00 0.85749275327E+00 0.92946143715E+00
 0.93610647218E+00 0.95694234700E+00 0.99436959185E+00 0.10514335427E+01 0.11305703917E+01
 0.12322224238E+01 0.13537032735E+01 0.14887477595E+01 0.16280763784E+01 0.17609847315E+01
 0.18775694070E+01 0.19720400072E+01 0.20438182595E+01 0.20953209722E+01 0.21305145485E+01
 0.21535367547E+01 0.21678161872E+01 0.21758514517E+01 0.21794469832E+01 0.21800555091E+01
 0.21789713761E+01 0.21773253400E+01 0.21759850054E+01 0.21754798469E+01 0.21759850054E+01
 0.21773253400E+01 0.21789713761E+01 0.21800555091E+01 0.21794469832E+01 0.21758514517E+01
 0.21678161872E+01 0.21535367547E+01 0.21305145485E+01 0.20953209722E+01 0.20438182595E+01
 0.19720400072E+01 0.18775694070E+01 0.17609847315E+01 0.16280763784E+01 0.14887477595E+01
 0.13537032735E+01 0.12322224238E+01 0.11305703917E+01 0.10514335427E+01 0.99436959185E+00
 0.95694234700E+00 0.93610647219E+00 0.10579812377E+01 0.10666333239E+01 0.10930050756E+01
 0.11381099586E+01 0.12029120497E+01 0.12874184104E+01 0.13897611459E+01 0.15055885185E+01
 0.16280763784E+01 0.17487242159E+01 0.18588231331E+01 0.19519385897E+01 0.20258475451E+01
 0.20812376251E+01 0.21207178941E+01 0.21476576242E+01 0.21652031546E+01 0.21758088010E+01
 0.21812790904E+01 0.21830585265E+01 0.21824646322E+01 0.21807166854E+01 0.21788176687E+01
 0.21774457277E+01 0.21769540276E+01 0.21774457277E+01 0.21788176687E+01 0.21807166854E+01
 0.21824646322E+01 0.21830585265E+01 0.21812790904E+01 0.21758088010E+01 0.21652031546E+01
 0.21476576242E+01 0.21207178941E+01 0.20812376251E+01 0.20258475451E+01 0.19519385897E+01
 0.18588231331E+01 0.17487242159E+01 0.16280763784E+01 0.15055885185E+01 0.13897611459E+01
 0.12874184104E+01 0.12029120497E+01 0.11381099586E+01 0.10930050756E+01 0.10666333239E+01
 0.12280424081E+01 0.12375056682E+01 0.12659064444E+01 0.13131205197E+01 0.13784651425E+01
 0.14601471814E+01 0.15547881478E+01 0.16572561170E+01 0.17609847315E+01 0.18588231331E+01
 0.19448460966E+01 0.20160167577E+01 0.20716540731E+01 0.21129910696E+01 0.21423797661E+01
 0.21624024510E+01 0.21752611468E+01 0.21826150176E+01 0.21857642579E+01 0.21859136225E+01
 0.21842810802E+01 0.21819972827E+01 0.21799218349E+01 0.21785499249E+01 0.21780786630E+01
 0.21785499249E+01 0.21799218349E+01 0.21819972827E+01 0.21842810802E+01 0.21859136225E+01
 0.21857642579E+01 0.21826150176E+01 0.21752611468E+01 0.21624024510E+01 0.21423797661E+01
 0.21129910696E+01 0.20716540731E+01 0.20160167577E+01 0.19448460966E+01 0.18588231331E+01
 0.17609847315E+01 0.16572561170E+01 0.15547881478E+01 0.14601471814E+01 0.13784651425E+01
 0.13131205197E+01 0.12659064444E+01 0.12375056682E+01 0.14201433837E+01 0.14292655643E+01
 0.14563579953E+01 0.15005143099E+01 0.15599828550E+01 0.16319309649E+01 0.17123293154E+01
 0.17960900361E+01 0.18775694070E+01 0.19519385897E+01 0.20160167577E+01 0.20682658410E+01
 0.21087578154E+01 0.21387561396E+01 0.21600743658E+01 0.21744868024E+01 0.21834176892E+01
 0.21879622274E+01 0.21891016235E+01 0.21878873637E+01 0.21854393597E+01 0.21827703477E+01
 0.21805874270E+01 0.21792292772E+01 0.21787768146E+01 0.21792292772E+01 0.21805874270E+01
 0.21827703477E+01 0.21854393597E+01 0.21878873637E+01 0.21891016235E+01 0.21879622274E+01
 0.21834176892E+01 0.21744868024E+01 0.21600743658E+01 0.21387561396E+01 0.21087578154E+01
 0.20682658410E+01 0.20160167577E+01 0.19519385897E+01 0.18775694070E+01 0.17960900361E+01
 0.17123293154E+01 0.16319309649E+01 0.15599828550E+01 0.15005143099E+01 0.14563579953E+01
 0.14292655643E+01 0.16111713519E+01 0.16190560387E+01 0.16422856741E+01 0.16795623401E+01
 0.17286675363E+01 0.17864610781E+01 0.18490091125E+01 0.19121096657E+01 0.19720400072E+01
 0.20258475451E+01 0.20716540731E+01 0.21087578154E+01 0.21374742246E+01 0.21587714692E+01
 0.21738420110E+01 0.21837783300E+01 0.21894618481E+01 0.21916530934E+01 0.21911580792E+01
 0.21889147229E+01 0.21859173519E+01 0.21830259806E+01 0.21807967164E+01 0.21794535451E+01
 0.21790126872E+01 0.21794535451E+01 0.21807967164E+01 0.21830259806E+01 0.21859173519E+01
 0.21889147229E+01 0.21911580792E+01 0.21916530934E+01 0.21894618481E+01 0.21837783300E+01
 0.21738420110E+01 0.21587714692E+01 0.21374742246E+01 0.21087578154E+01 0.20716540731E+01
 0.20258475451E+01 0.19720400072E+01 0.19121096657E+01 0.18490091125E+01 0.17864610781E+01
 0.17286675363E+01 0.16795623401E+01 0.16422856741E+01 0.16190560387E+01 0.17801133786E+01
 0.17862568630E+01 0.18042334229E+01 0.18326957965E+01 0.18694963869E+01 0.19119235734E+01
 0.19569923457E+01 0.20017909353E+01 0.20438182595E+01 0.20812376251E+01 0.21129910696E+01
 0.21387561396E+01 0.21587714692E+01 0.21735959233E+01 0.21838856334E+01 0.21902624246E+01
 0.21933025342E+01 0.21936113808E+01 0.21919022409E+01 0.21889974701E+01 0.21857262598E+01
 0.21827695030E+01 0.21805464445E+01 0.21792145562E+01 0.21787768146E+01 0.21792145562E+01
 0.21805464445E+01 0.21827695030E+01 0.21857262598E+01 0.21889974701E+01 0.21919022409E+01
 0.21936113808E+01 0.21933025342E+01 0.21902624246E+01 0.21838856334E+01 0.21735959233E+01
 0.21587714692E+01 0.21387561396E+01 0.21129910696E+01 0.20812376251E+01 0.20438182595E+01
 0.20017909353E+01 0.19569923457E+01 0.19119235734E+01 0.18694963869E+01 0.18326957965E+01
 0.18042334229E+01 0.17862568630E+01 0.19132159671E+01 0.19175807559E+01 0.19303080644E+01
 0.19503368980E+01 0.19760344819E+01 0.20053976829E+01 0.20363114640E+01 0.20668160375E+01
 0.20953209722E+01 0.21207178941E+01 0.21423797661E+01 0.21600743658E+01 0.21738420110E+01
 0.21838856334E+01 0.21905023899E+01 0.21940623576E+01 0.21950196391E+01 0.21939282066E+01
 0.21914326164E+01 0.21882160227E+01 0.21849128392E+01 0.21820191216E+01 0.21798429576E+01
 0.21785195408E+01 0.21780786630E+01 0.21785195408E+01 0.21798429576E+01 0.21820191216E+01
 0.21849128392E+01 0.21882160227E+01 0.21914326164E+01 0.21939282066E+01 0.21950196391E+01
 0.21940623576E+01 0.21905023899E+01 0.21838856334E+01 0.21738420110E+01 0.21600743658E+01
 0.21423797661E+01 0.21207178941E+01 0.20953209722E+01 0.20668160375E+01 0.20363114640E+01
 0.20053976829E+01 0.19760344819E+01 0.19503368980E+01 0.19303080644E+01 0.19175807559E+01
 0.20087559897E+01 0.20116943233E+01 0.20202521249E+01 0.20336900380E+01 0.20508832966E+01
 0.20704768166E+01 0.20910746345E+01 0.21114195918E+01 0.21305145485E+01 0.21476576242E+01
 0.21624024510E+01 0.21744868024E+01 0.21837783300E+01 0.21902624246E+01 0.21940623576E+01
 0.21954595781E+01 0.21948844775E+01 0.21928690653E+01 0.21899760120E+01 0.21867291577E+01
 0.21835657526E+01 0.21808173263E+01 0.21787138338E+01 0.21774000795E+01 0.21769540276E+01
 0.21774000795E+01 0.21787138338E+01 0.21808173263E+01 0.21835657526E+01 0.21867291577E+01
 0.21899760120E+01 0.21928690653E+01 0.21948844775E+01 0.21954595781E+01 0.21940623576E+01
 0.21902624246E+01 0.21837783300E+01 0.21744868024E+01 0.21624024510E+01 0.21476576242E+01
 0.21305145485E+01 0.21114195918E+01 0.20910746345E+01 0.20704768166E+01 0.20508832966E+01
 0.20336900380E+01 0.20202521249E+01 0.20116943233E+01 0.20727403781E+01 0.20746612482E+01
 0.20802615235E+01 0.20890735467E+01 0.21003835813E+01 0.21133290238E+01 0.21270181302E+01
 0.21406408999E+01 0.21535367547E+01 0.21652031546E+01 0.21752611468E+01 0.21834176892E+01
 0.21894618481E+01 0.21933025342E+01 0.21950196391E+01 0.21948844775E+01 0.21933215619E+01
 0.21908207686E+01 0.21878406151E+01 0.21847476697E+01 0.21818120040E+01 0.21792425985E+01
 0.21772248077E+01 0.21759281140E+01 0.21754798469E+01 0.21759281140E+01 0.21772248077E+01
 0.21792425985E+01 0.21818120040E+01 0.21847476697E+01 0.21878406151E+01 0.21908207686E+01
 0.21933215619E+01 0.21948844775E+01 0.21950196391E+01 0.21933025342E+01 0.21894618481E+01
 0.21834176892E+01 0.21752611468E+01 0.21652031546E+01 0.21535367547E+01 0.21406408999E+01
 0.21270181302E+01 0.21133290238E+01 0.21003835813E+01 0.20890735467E+01 0.20802615235E+01
 0.20746612482E+01 0.21134532154E+01 0.21147076754E+01 0.21183771211E+01 0.21241867154E+01
 0.21317052044E+01 0.21403923245E+01 0.21496655039E+01 0.21589682018E+01 0.21678161872E+01
 0.21758088010E+01 0.21826150176E+01 0.21879622274E+01 0.21916530934E+01 0.21936113808E+01
 0.21939282066E+01 0.21928690653E+01 0.21908207686E+01 0.21881952926E+01 0.21853378781E+01
 0.21824865320E+01 0.21797975064E+01 0.21774082354E+01 0.21754858697E+01 0.21742227427E+01
 0.21737804587E+01 0.21742227427E+01 0.21754858697E+01 0.21774082354E+01 0.21797975064E+01
 0.21824865320E+01 0.21853378781E+01 0.21881952926E+01 0.21908207686E+01 0.21928690653E+01
 0.21939282066E+01 0.21936113808E+01 0.21916530934E+01 0.21879622274E+01 0.21826150176E+01
 0.21758088010E+01 0.21678161872E+01 0.21589682018E+01 0.21496655039E+01 0.21403923245E+01
 0.21317052044E+01 0.21241867154E+01 0.21183771211E+01 0.21147076754E+01 0.21385493323E+01
 0.21393848247E+01 0.21418401637E+01 0.21457599653E+01 0.21508844774E+01 0.21568632891E+01
 0.21632893650E+01 0.21697463310E+01 0.21758514517E+01 0.21812790904E+01 0.21857642579E+01
 0.21891016235E+01 0.21911580792E+01 0.21919022409E+01 0.21914326164E+01 0.21899760120E+01
 0.21878406151E+01 0.21853378781E+01 0.21827125386E+01 0.21801199863E+01 0.21776612348E+01
 0.21754466432E+01 0.21736385645E+01 0.21724371279E+01 0.21720139634E+01 0.21724371279E+01
 0.21736385645E+01 0.21754466432E+01 0.21776612348E+01 0.21801199863E+01 0.21827125386E+01
 0.21853378781E+01 0.21878406151E+01 0.21899760120E+01 0.21914326164E+01 0.21919022409E+01
 0.21911580792E+01 0.21891016235E+01 0.21857642579E+01 0.21812790904E+01 0.21758514517E+01
 0.21697463310E+01 0.21632893650E+01 0.21568632891E+01 0.21508844774E+01 0.21457599653E+01
 0.21418401637E+01 0.21393848247E+01 0.21535693100E+01 0.21541379209E+01 0.21558169290E+01
 0.21585190131E+01 0.21620827257E+01 0.21662677139E+01 0.21707714101E+01 0.21752667842E+01
 0.21794469832E+01 0.21830585265E+01 0.21859136225E+01 0.21878873637E+01 0.21889147229E+01
 0.21889974701E+01 0.21882160227E+01 0.21867291577E+01 0.21847476697E+01 0.21824865320E+01
 0.21801199863E+01 0.21777676758E+01 0.21755210590E+01 0.21734898369E+01 0.21718305083E+01
 0.21707289631E+01 0.21703413268E+01 0.21707289631E+01 0.21718305083E+01 0.21734898369E+01
 0.21755210590E+01 0.21777676758E+01 0.21801199863E+01 0.21824865320E+01 0.21847476697E+01
 0.21867291577E+01 0.21882160227E+01 0.21889974701E+01 0.21889147229E+01 0.21878873637E+01
 0.21859136225E+01 0.21830585265E+01 0.21794469832E+01 0.21752667842E+01 0.21707714101E+01
 0.21662677139E+01 0.21620827257E+01 0.21585190131E+01 0.21558169290E+01 0.21541379209E+01
 0.21619348606E+01 0.21623268492E+01 0.21634896510E+01 0.21653752954E+01 0.21678822436E+01
 0.21708421449E+01 0.21740268167E+01 0.21771789498E+01 0.21800555091E+01 0.21824646322E+01
 0.21842810802E+01 0.21854393597E+01 0.21859173519E+01 0.21857262598E+01 0.21849128392E+01
 0.21835657526E+01 0.21818120040E+01 0.21797975064E+01 0.21776612348E+01 0.21755210590E+01
 0.21734820256E+01 0.21716590650E+01 0.21701914208E+01 0.21692292111E+01 0.21688929562E+01
 0.21692292111E+01 0.21701914208E+01 0.21716590650E+01 0.21734820256E+01 0.21755210590E+01
 0.21776612348E+01 0.21797975064E+01 0.21818120040E+01 0.21835657526E+01 0.21849128392E+01
 0.21857262598E+01 0.21859173519E+01 0.21854393597E+01 0.21842810802E+01 0.21824646322E+01
 0.21800555091E+01 0.21771789498E+01 0.21740268167E+01 0.21708421449E+01 0.21678822436E+01
 0.21653752954E+01 0.21634896510E+01 0.21623268492E+01 0.21657784356E+01 0.21660535765E+01
 0.21668743320E+01 0.21682184911E+01 0.21700270129E+01 0.21721869628E+01 0.21745307097E+01
 0.21768575898E+01 0.21789713761E+01 0.21807166854E+01 0.21819972827E+01 0.21827703477E+01
 0.21830259806E+01 0.21827695030E+01 0.21820191216E+01 0.21808173263E+01 0.21792425985E+01
 0.21774082354E+01 0.21754466432E+01 0.21734898369E+01 0.21716590650E+01 0.21700667594E+01
 0.21688215989E+01 0.21680240620E+01 0.21677488746E+01 0.21680240620E+01 0.21688215989E+01
 0.21700667594E+01 0.21716590650E+01 0.21734898369E+01 0.21754466432E+01 0.21774082354E+01
 0.21792425985E+01 0.21808173263E+01 0.21820191216E+01 0.21827695030E+01 0.21830259806E+01
 0.21827703477E+01 0.21819972827E+01 0.21807166854E+01 0.21789713761E+01 0.21768575898E+01
 0.21745307097E+01 0.21721869628E+01 0.21700270129E+01 0.21682184911E+01 0.21668743320E+01
 0.21660535765E+01 0.21667893712E+01 0.21669932029E+01 0.21676059184E+01 0.21686238950E+01
 0.21700204087E+01 0.21717261526E+01 0.21736208029E+01 0.21755441488E+01 0.21773253400E+01
 0.21788176687E+01 0.21799218349E+01 0.21805874270E+01 0.21807967164E+01 0.21805464445E+01
 0.21798429576E+01 0.21787138338E+01 0.21772248077E+01 0.21754858697E+01 0.21736385645E+01
 0.21718305083E+01 0.21701914208E+01 0.21688215989E+01 0.21677930813E+01 0.21671555691E+01
 0.21669395610E+01 0.21671555691E+01 0.21677930813E+01 0.21688215989E+01 0.21701914208E+01
 0.21718305083E+01 0.21736385645E+01 0.21754858697E+01 0.21772248077E+01 0.21787138338E+01
 0.21798429576E+01 0.21805464445E+01 0.21807967164E+01 0.21805874270E+01 0.21799218349E+01
 0.21788176687E+01 0.21773253400E+01 0.21755441488E+01 0.21736208029E+01 0.21717261526E+01
 0.21700204087E+01 0.21686238950E+01 0.21676059184E+01 0.21669932029E+01 0.21665485025E+01
 0.21667160303E+01 0.21672236016E+01 0.21680796773E+01 0.21692788648E+01 0.21707806128E+01
 0.21724946637E+01 0.21742835461E+01 0.21759850054E+01 0.21774457277E+01 0.21785499249E+01
 0.21792292772E+01 0.21794535451E+01 0.21792145562E+01 0.21785195408E+01 0.21774000795E+01
 0.21759281140E+01 0.21742227427E+01 0.21724371279E+01 0.21707289631E+01 0.21692292111E+01
 0.21680240620E+01 0.21671555691E+01 0.21666355811E+01 0.21664628727E+01 0.21666355811E+01
 0.21671555691E+01 0.21680240620E+01 0.21692292111E+01 0.21707289631E+01 0.21724371279E+01
 0.21742227427E+01 0.21759281140E+01 0.21774000795E+01 0.21785195408E+01 0.21792145562E+01
 0.21794535451E+01 0.21792292772E+01 0.21785499249E+01 0.21774457277E+01 0.21759850054E+01
 0.21742835461E+01 0.21724946637E+01 0.21707806128E+01 0.21692788648E+01 0.21680796773E+01
 0.21672236016E+01 0.21667160303E+01 0.21663060815E+01 0.21664628727E+01 0.21669395610E+01
 0.21677488746E+01 0.21688929562E+01 0.21703413268E+01 0.21720139634E+01 0.21737804587E+01
 0.21754798469E+01 0.21769540276E+01 0.21780786630E+01 0.21787768146E+01 0.21790126872E+01
 0.21787768146E+01 0.21780786630E+01 0.21769540276E+01 0.21754798469E+01 0.21737804587E+01
 0.21720139634E+01 0.21703413268E+01 0.21688929562E+01 0.21677488746E+01 0.21669395610E+01
 0.21664628727E+01 0.21663060815E+01 0.21664628727E+01 0.21669395610E+01 0.21677488746E+01
 0.21688929562E+01 0.21703413268E+01 0.21720139634E+01 0.21737804587E+01 0.21754798469E+01
 0.21769540276E+01 0.21780786630E+01 0.21787768146E+01 0.21790126872E+01 0.21787768146E+01
 0.21780786630E+01 0.21769540276E+01 0.21754798469E+01 0.21737804587E+01 0.21720139634E+01
 0.21703413268E+01 0.21688929562E+01 0.21677488746E+01 0.21669395610E+01 0.21664628727E+01
 0.21665485025E+01 0.21667160303E+01 0.21672236016E+01 0.21680796773E+01 0.21692788648E+01
 0.21707806128E+01 0.21724946637E+01 0.21742835461E+01 0.21759850054E+01 0.21774457277E+01
 0.21785499249E+01 0.21792292772E+01 0.21794535451E+01 0.21792145562E+01 0.21785195408E+01
 0.21774000795E+01 0.21759281140E+01 0.21742227427E+01 0.21724371279E+01 0.21707289631E+01
 0.21692292111E+01 0.21680240620E+01 0.21671555691E+01 0.21666355811E+01 0.21664628727E+01
 0.21666355811E+01 0.21671555691E+01 0.21680240620E+01 0.21692292111E+01 0.21707289631E+01
 0.21724371279E+01 0.21742227427E+01 0.21759281140E+01 0.21774000795E+01 0.21785195408E+01
 0.21792145562E+01 0.21794535451E+01 0.21792292772E+01 0.21785499249E+01 0.21774457277E+01
 0.21759850054E+01 0.21742835461E+01 0.21724946637E+01 0.21707806128E+01 0.21692788648E+01
 0.21680796773E+01 0.21672236016E+01 0.21667160303E+01 0.21667893712E+01 0.21669932029E+01
 0.21676059184E+01 0.21686238950E+01 0.21700204087E+01 0.21717261526E+01 0.21736208029E+01
 0.21755441488E+01 0.21773253400E+01 0.21788176687E+01 0.21799218349E+01 0.21805874270E+01
 0.21807967164E+01 0.21805464445E+01 0.21798429576E+01 0.21787138338E+01 0.21772248077E+01
 0.21754858697E+01 0.21736385645E+01 0.21718305083E+01 0.21701914208E+01 0.21688215989E+01
 0.21677930813E+01 0.21671555691E+01 0.21669395610E+01 0.21671555691E+01 0.21677930813E+01
 0.21688215989E+01 0.21701914208E+01 0.21718305083E+01 0.21736385645E+01 0.21754858697E+01
 0.21772248077E+01 0.21787138338E+01 0.21798429576E+01 0.21805464445E+01 0.21807967164E+01
 0.21805874270E+01 0.21799218349E+01 0.21788176687E+01 0.21773253400E+01 0.21755441488E+01
 0.21736208029E+01 0.21717261526E+01 0.21700204087E+01 0.21686238950E+01 0.21676059184E+01
 0.21669932029E+01 0.21657784356E+01 0.21660535765E+01 0.21668743320E+01 0.21682184911E+01
 0.21700270129E+01 0.21721869628E+01 0.21745307097E+01 0.21768575898E+01 0.21789713761E+01
 0.21807166854E+01 0.21819972827E+01 0.21827703477E+01 0.21830259806E+01 0.21827695030E+01
 0.21820191216E+01 0.21808173263E+01 0.21792425985E+01 0.21774082354E+01 0.21754466432E+01
 0.21734898369E+01 0.21716590650E+01 0.21700667594E+01 0.21688215989E+01 0.21680240620E+01
 0.21677488746E+01 0.21680240620E+01 0.21688215989E+01 0.21700667594E+01 0.21716590650E+01
 0.21734898369E+01 0.21754466432E+01 0.21774082354E+01 0.21792425985E+01 0.21808173263E+01
 0.21820191216E+01 0.21827695030E+01 0.21830259806E+01 0.21827703477E+01 0.21819972827E+01
 0.21807166854E+01 0.21789713761E+01 0.21768575898E+01 0.21745307097E+01 0.21721869628E+01
 0.21700270129E+01 0.21682184911E+01 0.21668743320E+01 0.21660535765E+01 0.21619348606E+01
 0.21623268492E+01 0.21634896510E+01 0.21653752954E+01 0.21678822436E+01 0.21708421449E+01
 0.21740268167E+01 0.21771789498E+01 0.21800555091E+01 0.21824646322E+01 0.21842810802E+01
 0.21854393597E+01 0.21859173519E+01 0.21857262598E+01 0.21849128392E+01 0.21835657526E+01
 0.21818120040E+01 0.21797975064E+01 0.21776612348E+01 0.21755210590E+01 0.21734820256E+01
 0.21716590650E+01 0.21701914208E+01 0.21692292111E+01 0.21688929562E+01 0.21692292111E+01
 0.21701914208E+01 0.21716590650E+01 0.21734820256E+01 0.21755210590E+01 0.21776612348E+01
 0.21797975064E+01 0.21818120040E+01 0.21835657526E+01 0.21849128392E+01 0.21857262598E+01
 0.21859173519E+01 0.21854393597E+01 0.21842810802E+01 0.21824646322E+01 0.21800555091E+01
 0.21771789498E+01 0.21740268167E+01 0.21708421449E+01 0.21678822436E+01 0.21653752954E+01
 0.21634896510E+01 0.21623268492E+01 0.21535693100E+01 0.21541379209E+01 0.21558169290E+01
 0.21585190131E+01 0.21620827257E+01 0.21662677139E+01 0.21707714101E+01 0.21752667842E+01
 0.21794469832E+01 0.21830585265E+01 0.21859136225E+01 0.21878873637E+01 0.21889147229E+01
 0.21889974701E+01 0.21882160227E+01 0.21867291577E+01 0.21847476697E+01 0.21824865320E+01
 0.21801199863E+01 0.21777676758E+01 0.21755210590E+01 0.21734898369E+01 0.21718305083E+01
 0.21707289631E+01 0.21703413268E+01 0.21707289631E+01 0.21718305083E+01 0.21734898369E+01
 0.21755210590E+01 0.21777676758E+01 0.21801199863E+01 0.21824865320E+01 0.21847476697E+01
 0.21867291577E+01 0.21882160227E+01 0.21889974701E+01 0.21889147229E+01 0.21878873637E+01
 0.21859136225E+01 0.21830585265E+01 0.21794469832E+01 0.21752667842E+01 0.21707714101E+01
 0.21662677139E+01 0.21620827257E+01 0.21585190131E+01 0.21558169290E+01 0.21541379209E+01
 0.21385493323E+01 0.21393848247E+01 0.21418401637E+01 0.21457599653E+01 0.21508844774E+01
 0.21568632891E+01 0.21632893650E+01 0.21697463310E+01 0.21758514517E+01 0.21812790904E+01
 0.21857642579E+01 0.21891016235E+01 0.21911580792E+01 0.21919022409E+01 0.21914326164E+01
 0.21899760120E+01 0.21878406151E+01 0.21853378781E+01 0.21827125386E+01 0.21801199863E+01
 0.21776612348E+01 0.21754466432E+01 0.21736385645E+01 0.21724371279E+01 0.21720139634E+01
 0.21724371279E+01 0.21736385645E+01 0.21754466432E+01 0.21776612348E+01 0.21801199863E+01
 0.21827125386E+01 0.21853378781E+01 0.21878406151E+01 0.21899760120E+01 0.21914326164E+01
 0.21919022409E+01 0.21911580792E+01 0.21891016235E+01 0.21857642579E+01 0.21812790904E+01
 0.21758514517E+01 0.21697463310E+01 0.21632893650E+01 0.21568632891E+01 0.21508844774E+01
 0.21457599653E+01 0.21418401637E+01 0.21393848247E+01 0.21134532154E+01 0.21147076754E+01
 0.21183771211E+01 0.21241867154E+01 0.21317052044E+01 0.21403923245E+01 0.21496655039E+01
 0.21589682018E+01 0.21678161872E+01 0.21758088010E+01 0.21826150176E+01 0.21879622274E+01
 0.21916530934E+01 0.21936113808E+01 0.21939282066E+01 0.21928690653E+01 0.21908207686E+01
 0.21881952926E+01 0.21853378781E+01 0.21824865320E+01 0.21797975064E+01 0.21774082354E+01
 0.21754858697E+01 0.21742227427E+01 0.21737804587E+01 0.21742227427E+01 0.21754858697E+01
 0.21774082354E+01 0.21797975064E+01 0.21824865320E+01 0.21853378781E+01 0.21881952926E+01
 0.21908207686E+01 0.21928690653E+01 0.21939282066E+01 0.21936113808E+01 0.21916530934E+01
 0.21879622274E+01 0.21826150176E+01 0.21758088010E+01 0.21678161872E+01 0.21589682018E+01
 0.21496655039E+01 0.21403923245E+01 0.21317052044E+01 0.21241867154E+01 0.21183771211E+01
 0.21147076754E+01 0.20727403781E+01 0.20746612482E+01 0.20802615235E+01 0.20890735467E+01
 0.21003835813E+01 0.21133290238E+01 0.21270181302E+01 0.21406408999E+01 0.21535367547E+01
 0.21652031546E+01 0.21752611468E+01 0.21834176892E+01 0.21894618481E+01 0.21933025342E+01
 0.21950196391E+01 0.21948844775E+01 0.21933215619E+01 0.21908207686E+01 0.21878406151E+01
 0.21847476697E+01 0.21818120040E+01 0.21792425985E+01 0.21772248077E+01 0.21759281140E+01
 0.21754798469E+01 0.21759281140E+01 0.21772248077E+01 0.21792425985E+01 0.21818120040E+01
 0.21847476697E+01 0.21878406151E+01 0.21908207686E+01 0.21933215619E+01 0.21948844775E+01
 0.21950196391E+01 0.21933025342E+01 0.21894618481E+01 0.21834176892E+01 0.21752611468E+01
 0.21652031546E+01 0.21535367547E+01 0.21406408999E+01 0.21270181302E+01 0.21133290238E+01
 0.21003835813E+01 0.20890735467E+01 0.20802615235E+01 0.20746612482E+01 0.20087559897E+01
 0.20116943233E+01 0.20202521249E+01 0.20336900380E+01 0.20508832966E+01 0.20704768166E+01
 0.20910746345E+01 0.21114195918E+01 0.21305145485E+01 0.21476576242E+01 0.21624024510E+01
 0.21744868024E+01 0.21837783300E+01 0.21902624246E+01 0.21940623576E+01 0.21954595781E+01
 0.21948844775E+01 0.21928690653E+01 0.21899760120E+01 0.21867291577E+01 0.21835657526E+01
 0.21808173263E+01 0.21787138338E+01 0.21774000795E+01 0.21769540276E+01 0.21774000795E+01
 0.21787138338E+01 0.21808173263E+01 0.21835657526E+01 0.21867291577E+01 0.21899760120E+01
 0.21928690653E+01 0.21948844775E+01 0.21954595781E+01 0.21940623576E+01 0.21902624246E+01
 0.21837783300E+01 0.21744868024E+01 0.21624024510E+01 0.21476576242E+01 0.21305145485E+01
 0.21114195918E+01 0.20910746345E+01 0.20704768166E+01 0.20508832966E+01 0.20336900380E+01