   2   2   0   0
  0.3925636E+02  0.4282000E-09  0.4282000E-09  0.4282000E-09  0.5000000E-15
   1.0000000000000000E-004
  CAR 
 unknown system                          
     11.12631700     -4.71690161  301      0.81035310      1.00000000
     -4.717  0.0000E+00  0.0000E+00
     -4.664  0.0000E+00  0.0000E+00
     -4.611  0.0000E+00  0.0000E+00
     -4.558  0.0000E+00  0.0000E+00
     -4.506  0.0000E+00  0.0000E+00
     -4.453  0.0000E+00  0.0000E+00
     -4.400  0.0000E+00  0.0000E+00
     -4.347 -0.5491E-32 -0.2900E-33
     -4.294 -0.3874E-30 -0.2075E-31
     -4.242 -0.2270E-28 -0.1220E-29
     -4.189 -0.1157E-26 -0.6232E-28
     -4.136 -0.5130E-25 -0.2772E-26
     -4.083 -0.1979E-23 -0.1073E-24
     -4.030 -0.6647E-22 -0.3618E-23
     -3.978 -0.1943E-20 -0.1062E-21
     -3.925 -0.4945E-19 -0.2718E-20
     -3.872 -0.1067E-17 -0.5907E-19
     -3.819 -0.2050E-16 -0.1142E-17
     -3.766 -0.3433E-15 -0.1927E-16
     -3.713 -0.5012E-14 -0.2840E-15
     -3.661 -0.6375E-13 -0.3650E-14
     -3.608 -0.7063E-12 -0.4095E-13
     -3.555 -0.6818E-11 -0.4010E-12
     -3.502 -0.5733E-10 -0.3429E-11
     -3.449 -0.4199E-09 -0.2560E-10
     -3.397 -0.2677E-08 -0.1670E-09
     -3.344 -0.1484E-07 -0.9508E-09
     -3.291 -0.7149E-07 -0.4726E-08
     -3.238 -0.2985E-06 -0.2049E-07
     -3.185 -0.1077E-05 -0.7737E-07
     -3.133 -0.3343E-05 -0.2539E-06
     -3.080 -0.8857E-05 -0.7217E-06
     -3.027 -0.1977E-04 -0.1766E-05
     -2.974 -0.3624E-04 -0.3680E-05
     -2.921 -0.5152E-04 -0.6401E-05
     -2.869 -0.4655E-04 -0.8859E-05
     -2.816  0.9724E-05 -0.8346E-05
     -2.763  0.1495E-03 -0.4509E-06
     -2.710  0.3887E-03  0.2008E-04
     -2.657  0.7170E-03  0.5794E-04
     -2.604  0.1103E-02  0.1162E-03
     -2.552  0.1505E-02  0.1957E-03
     -2.499  0.1875E-02  0.2947E-03
     -2.446  0.2168E-02  0.4092E-03
     -2.393  0.2369E-02  0.5343E-03
     -2.340  0.2520E-02  0.6674E-03
     -2.288  0.2697E-02  0.8098E-03
     -2.235  0.2940E-02  0.9651E-03
     -2.182  0.3213E-02  0.1135E-02
     -2.129  0.3440E-02  0.1316E-02
     -2.076  0.3572E-02  0.1505E-02
     -2.024  0.3613E-02  0.1696E-02
     -1.971  0.3603E-02  0.1886E-02
     -1.918  0.3608E-02  0.2077E-02
     -1.865  0.3717E-02  0.2273E-02
     -1.812  0.3999E-02  0.2484E-02
     -1.760  0.4421E-02  0.2718E-02
     -1.707  0.4835E-02  0.2973E-02
     -1.654  0.5058E-02  0.3240E-02
     -1.601  0.4986E-02  0.3503E-02
     -1.548  0.4665E-02  0.3750E-02
     -1.495  0.4294E-02  0.3977E-02
     -1.443  0.4146E-02  0.4196E-02
     -1.390  0.4404E-02  0.4428E-02
     -1.337  0.5021E-02  0.4693E-02
     -1.284  0.5732E-02  0.4996E-02
     -1.231  0.6237E-02  0.5325E-02
     -1.179  0.6376E-02  0.5662E-02
     -1.126  0.6157E-02  0.5987E-02
     -1.073  0.5721E-02  0.6289E-02
     -1.020  0.5295E-02  0.6569E-02
     -0.967  0.5128E-02  0.6840E-02
     -0.915  0.5348E-02  0.7122E-02
     -0.862  0.5837E-02  0.7431E-02
     -0.809  0.6308E-02  0.7764E-02
     -0.756  0.6522E-02  0.8108E-02
     -0.703  0.6466E-02  0.8450E-02
     -0.650  0.6344E-02  0.8785E-02
     -0.598  0.6405E-02  0.9123E-02
     -0.545  0.6755E-02  0.9480E-02
     -0.492  0.7273E-02  0.9864E-02
     -0.439  0.7696E-02  0.1027E-01
     -0.386  0.7803E-02  0.1068E-01
     -0.334  0.7540E-02  0.1108E-01
     -0.281  0.6999E-02  0.1145E-01
     -0.228  0.6345E-02  0.1179E-01
     -0.175  0.5816E-02  0.1209E-01
     -0.122  0.5701E-02  0.1239E-01
     -0.070  0.6183E-02  0.1272E-01
     -0.017  0.7162E-02  0.1310E-01
      0.036  0.8285E-02  0.1354E-01
      0.089  0.9163E-02  0.1402E-01
      0.142  0.9567E-02  0.1452E-01
      0.194  0.9457E-02  0.1502E-01
      0.247  0.8928E-02  0.1550E-01
      0.300  0.8187E-02  0.1593E-01
      0.353  0.7510E-02  0.1632E-01
      0.406  0.7137E-02  0.1670E-01
      0.459  0.7150E-02  0.1708E-01
      0.511  0.7443E-02  0.1747E-01
      0.564  0.7800E-02  0.1788E-01
      0.617  0.8049E-02  0.1831E-01
      0.670  0.8206E-02  0.1874E-01
      0.723  0.8467E-02  0.1919E-01
      0.775  0.8997E-02  0.1966E-01
      0.828  0.9710E-02  0.2018E-01
      0.881  0.1028E-01  0.2072E-01
      0.934  0.1038E-01  0.2127E-01
      0.987  0.9928E-02  0.2179E-01
      1.039  0.9153E-02  0.2228E-01
      1.092  0.8531E-02  0.2273E-01
      1.145  0.8505E-02  0.2318E-01
      1.198  0.9174E-02  0.2366E-01
      1.251  0.1016E-01  0.2420E-01
      1.304  0.1083E-01  0.2477E-01
      1.356  0.1077E-01  0.2534E-01
      1.409  0.1005E-01  0.2587E-01
      1.462  0.9174E-02  0.2635E-01
      1.515  0.8770E-02  0.2682E-01
      1.568  0.9160E-02  0.2730E-01
      1.620  0.1016E-01  0.2784E-01
      1.673  0.1120E-01  0.2843E-01
      1.726  0.1173E-01  0.2905E-01
      1.779  0.1158E-01  0.2966E-01
      1.832  0.1101E-01  0.3024E-01
      1.884  0.1051E-01  0.3080E-01
      1.937  0.1039E-01  0.3134E-01
      1.990  0.1062E-01  0.3190E-01
      2.043  0.1085E-01  0.3248E-01
      2.096  0.1070E-01  0.3304E-01
      2.148  0.1015E-01  0.3358E-01
      2.201  0.9484E-02  0.3408E-01
      2.254  0.9036E-02  0.3456E-01
      2.307  0.8856E-02  0.3502E-01
      2.360  0.8736E-02  0.3549E-01
      2.413  0.8493E-02  0.3593E-01
      2.465  0.8205E-02  0.3637E-01
      2.518  0.8173E-02  0.3680E-01
      2.571  0.8685E-02  0.3726E-01
      2.624  0.9793E-02  0.3778E-01
      2.677  0.1129E-01  0.3837E-01
      2.729  0.1278E-01  0.3905E-01
      2.782  0.1389E-01  0.3978E-01
      2.835  0.1439E-01  0.4054E-01
      2.888  0.1427E-01  0.4129E-01
      2.941  0.1374E-01  0.4202E-01
      2.993  0.1293E-01  0.4270E-01
      3.046  0.1182E-01  0.4333E-01
      3.099  0.1041E-01  0.4388E-01
      3.152  0.8896E-02  0.4435E-01
      3.205  0.7836E-02  0.4476E-01
      3.258  0.7839E-02  0.4517E-01
      3.310  0.9154E-02  0.4566E-01
      3.363  0.1144E-01  0.4626E-01
      3.416  0.1394E-01  0.4700E-01
      3.469  0.1596E-01  0.4784E-01
      3.522  0.1706E-01  0.4874E-01
      3.574  0.1708E-01  0.4964E-01
      3.627  0.1601E-01  0.5049E-01
      3.680  0.1396E-01  0.5123E-01
      3.733  0.1134E-01  0.5182E-01
      3.786  0.8898E-02  0.5229E-01
      3.838  0.7465E-02  0.5269E-01
      3.891  0.7560E-02  0.5309E-01
      3.944  0.9053E-02  0.5357E-01
      3.997  0.1119E-01  0.5416E-01
      4.050  0.1297E-01  0.5484E-01
      4.102  0.1369E-01  0.5556E-01
      4.155  0.1318E-01  0.5626E-01
      4.208  0.1185E-01  0.5689E-01
      4.261  0.1045E-01  0.5744E-01
      4.314  0.9774E-02  0.5795E-01
      4.367  0.1035E-01  0.5850E-01
      4.419  0.1210E-01  0.5914E-01
      4.472  0.1420E-01  0.5989E-01
      4.525  0.1539E-01  0.6070E-01
      4.578  0.1474E-01  0.6148E-01
      4.631  0.1237E-01  0.6213E-01
      4.683  0.9481E-02  0.6263E-01
      4.736  0.7650E-02  0.6304E-01
      4.789  0.7853E-02  0.6345E-01
      4.842  0.9926E-02  0.6398E-01
      4.895  0.1268E-01  0.6465E-01
      4.947  0.1458E-01  0.6542E-01
      5.000  0.1470E-01  0.6619E-01
      5.053  0.1329E-01  0.6690E-01
      5.106  0.1152E-01  0.6750E-01
      5.159  0.1052E-01  0.6806E-01
      5.212  0.1059E-01  0.6862E-01
      5.264  0.1123E-01  0.6921E-01
      5.317  0.1181E-01  0.6984E-01
      5.370  0.1204E-01  0.7047E-01
      5.423  0.1197E-01  0.7110E-01
      5.476  0.1167E-01  0.7172E-01
      5.528  0.1108E-01  0.7231E-01
      5.581  0.1019E-01  0.7284E-01
      5.634  0.9263E-02  0.7333E-01
      5.687  0.8761E-02  0.7379E-01
      5.740  0.9061E-02  0.7427E-01
      5.792  0.1020E-01  0.7481E-01
      5.845  0.1183E-01  0.7544E-01
      5.898  0.1343E-01  0.7615E-01
      5.951  0.1456E-01  0.7692E-01
      6.004  0.1509E-01  0.7771E-01
      6.056  0.1510E-01  0.7851E-01
      6.109  0.1470E-01  0.7929E-01
      6.162  0.1390E-01  0.8002E-01
      6.215  0.1270E-01  0.8069E-01
      6.268  0.1128E-01  0.8129E-01
      6.321  0.9990E-02  0.8181E-01
      6.373  0.9157E-02  0.8230E-01
      6.426  0.8841E-02  0.8276E-01
      6.479  0.8864E-02  0.8323E-01
      6.532  0.9042E-02  0.8371E-01
      6.585  0.9377E-02  0.8420E-01
      6.637  0.1001E-01  0.8473E-01
      6.690  0.1100E-01  0.8531E-01
      6.743  0.1214E-01  0.8596E-01
      6.796  0.1301E-01  0.8664E-01
      6.849  0.1322E-01  0.8734E-01
      6.901  0.1267E-01  0.8801E-01
      6.954  0.1159E-01  0.8862E-01
      7.007  0.1043E-01  0.8917E-01
      7.060  0.9575E-02  0.8968E-01
      7.113  0.9157E-02  0.9016E-01
      7.166  0.9002E-02  0.9064E-01
      7.218  0.8779E-02  0.9110E-01
      7.271  0.8256E-02  0.9154E-01
      7.324  0.7514E-02  0.9193E-01
      7.377  0.6933E-02  0.9230E-01
      7.430  0.6939E-02  0.9267E-01
      7.482  0.7712E-02  0.9307E-01
      7.535  0.9050E-02  0.9355E-01
      7.588  0.1046E-01  0.9410E-01
      7.641  0.1140E-01  0.9471E-01
      7.694  0.1149E-01  0.9531E-01
      7.746  0.1067E-01  0.9588E-01
      7.799  0.9212E-02  0.9636E-01
      7.852  0.7535E-02  0.9676E-01
      7.905  0.5993E-02  0.9708E-01
      7.958  0.4760E-02  0.9733E-01
      8.010  0.3888E-02  0.9753E-01
      8.063  0.3407E-02  0.9771E-01
      8.116  0.3323E-02  0.9789E-01
      8.169  0.3527E-02  0.9808E-01
      8.222  0.3780E-02  0.9828E-01
      8.275  0.3829E-02  0.9848E-01
      8.327  0.3544E-02  0.9867E-01
      8.380  0.2984E-02  0.9882E-01
      8.433  0.2326E-02  0.9895E-01
      8.486  0.1754E-02  0.9904E-01
      8.539  0.1377E-02  0.9911E-01
      8.591  0.1208E-02  0.9917E-01
      8.644  0.1197E-02  0.9924E-01
      8.697  0.1271E-02  0.9931E-01
      8.750  0.1372E-02  0.9938E-01
      8.803  0.1464E-02  0.9946E-01
      8.855  0.1543E-02  0.9954E-01
      8.908  0.1606E-02  0.9962E-01
      8.961  0.1637E-02  0.9971E-01
      9.014  0.1593E-02  0.9979E-01
      9.067  0.1436E-02  0.9987E-01
      9.120  0.1159E-02  0.9993E-01
      9.172  0.8108E-03  0.9997E-01
      9.225  0.4677E-03  0.1000E+00
      9.278  0.1982E-03  0.1000E+00
      9.331  0.3280E-04  0.1000E+00
      9.384 -0.3923E-04  0.1000E+00
      9.436 -0.5144E-04  0.1000E+00
      9.489 -0.3815E-04  0.1000E+00
      9.542 -0.2138E-04  0.1000E+00
      9.595 -0.9716E-05  0.1000E+00
      9.648 -0.3682E-05  0.1000E+00
      9.700 -0.1179E-05  0.1000E+00
      9.753 -0.3215E-06  0.1000E+00
      9.806 -0.7499E-07  0.1000E+00
      9.859 -0.1501E-07  0.1000E+00
      9.912 -0.2585E-08  0.1000E+00
      9.964 -0.3835E-09  0.1000E+00
     10.017 -0.4908E-10  0.1000E+00
     10.070 -0.5427E-11  0.1000E+00
     10.123 -0.5187E-12  0.1000E+00
     10.176 -0.4289E-13  0.1000E+00
     10.229 -0.3070E-14  0.1000E+00
     10.281 -0.1911E-15  0.1000E+00
     10.334 -0.1010E-16  0.1000E+00
     10.387 -0.4593E-18  0.1000E+00
     10.440  0.0000E+00  0.1000E+00
     10.493  0.0000E+00  0.1000E+00
     10.545  0.0000E+00  0.1000E+00
     10.598  0.0000E+00  0.1000E+00
     10.651  0.0000E+00  0.1000E+00
     10.704  0.0000E+00  0.1000E+00
     10.757  0.0000E+00  0.1000E+00
     10.809  0.0000E+00  0.1000E+00
     10.862  0.0000E+00  0.1000E+00
     10.915  0.0000E+00  0.1000E+00
     10.968  0.0000E+00  0.1000E+00
     11.021  0.0000E+00  0.1000E+00
     11.074  0.0000E+00  0.1000E+00
     11.126  0.0000E+00  0.1000E+00
