    2    2  100    1
  0.3925636E+02  0.4282000E-09  0.4282000E-09  0.4282000E-09  0.5000000E-15
   1.0000000000000000E-004
  CAR 
 unknown system                          
      2     84      5

  0.1262379E-14  0.1262379E-14  0.1262379E-14  0.4551661E-03
    1       -2.716902   1.000000
    2        5.540004  -0.000000
    3        5.540004  -0.000000
    4        5.966808  -0.000000
    5        5.966808  -0.000000

  0.7692308E-01  0.1262379E-14  0.1262379E-14  0.2730997E-02
    1       -2.661083   1.000000
    2        4.670679  -0.000000
    3        5.593877  -0.000000
    4        6.011329  -0.000000
    5        6.011329  -0.000000

  0.1538462E+00  0.1262379E-14  0.1262379E-14  0.2730997E-02
    1       -2.493915   1.000000
    2        3.613026  -0.000000
    3        5.755488  -0.000000
    4        6.145036  -0.000000
    5        6.145036  -0.000000

  0.2307692E+00  0.1262379E-14  0.1262379E-14  0.2730997E-02
    1       -2.216317   1.000000
    2        2.589330  -0.000000
    3        6.024815  -0.000000
    4        6.368355   0.000000
    5        6.368355   0.000000

  0.3076923E+00  0.1262379E-14  0.1262379E-14  0.2730997E-02
    1       -1.829848   1.000000
    2        1.629629  -0.000000
    3        6.401819   0.000000
    4        6.681956   0.000000
    5        6.681956   0.000000

  0.3846154E+00  0.1262379E-14  0.1262379E-14  0.2730997E-02
    1       -1.336703   1.000000
    2        0.749084   0.746255
    3        6.886437   0.000000
    4        7.086707   0.000000
    5        7.086707   0.000000

  0.4615385E+00  0.1262379E-14  0.1262379E-14  0.2730997E-02
    1       -0.739797   1.000000
    2       -0.042904   1.000000
    3        7.478576   0.000000
    4        7.583578   0.000000
    5        7.583578   0.000000

  0.7692308E-01  0.7692308E-01  0.1262379E-14  0.5461994E-02
    1       -2.605304   1.000000
    2        4.550830  -0.000000
    3        4.953951  -0.000000
    4        6.055847  -0.000000
    5        6.379888   0.000000

  0.1538462E+00  0.7692308E-01  0.1262379E-14  0.1092399E-01
    1       -2.438294   1.000000
    2        3.644704  -0.000000
    3        4.962290  -0.000000
    4        6.189546  -0.000000
    5        6.598402   0.000000

  0.2307692E+00  0.7692308E-01  0.1262379E-14  0.1092399E-01
    1       -2.160955   1.000000
    2        2.635477  -0.000000
    3        5.199264  -0.000000
    4        6.412845   0.000000
    5        6.869140   0.000000

  0.3076923E+00  0.7692308E-01  0.1262379E-14  0.1092399E-01
    1       -1.774843   1.000000
    2        1.679893  -0.000000
    3        5.544448  -0.000000
    4        6.726408   0.000000
    5        7.232891   0.000000

  0.3846154E+00  0.7692308E-01  0.1262379E-14  0.1092399E-01
    1       -1.282172   1.000000
    2        0.801166   0.538829
    3        5.990146  -0.000000
    4        7.131092   0.000000
    5        7.694989   0.000000

  0.4615385E+00  0.7692308E-01  0.1262379E-14  0.1092399E-01
    1       -0.685865   1.000000
    2        0.010260   1.000000
    3        6.534021   0.000000
    4        7.174456   0.000000
    5        7.627850   0.000000

  0.1538462E+00  0.1538462E+00  0.1262379E-14  0.5461994E-02
    1       -2.271733   1.000000
    2        3.575365  -0.000000
    3        4.134222  -0.000000
    4        6.323214   0.000000
    5        6.904050   0.000000

  0.2307692E+00  0.1538462E+00  0.1262379E-14  0.1092399E-01
    1       -1.995173   1.000000
    2        2.762744  -0.000000
    3        4.174673  -0.000000
    4        6.546440   0.000000
    5        7.214287   0.000000

  0.3076923E+00  0.1538462E+00  0.1262379E-14  0.1092399E-01
    1       -1.610146   1.000000
    2        1.828645  -0.000000
    3        4.499846  -0.000000
    4        6.859859   0.000000
    5        7.605202   0.000000

  0.3846154E+00  0.1538462E+00  0.1262379E-14  0.1092399E-01
    1       -1.118896   1.000000
    2        0.956697   0.029539
    3        4.941481  -0.000000
    4        7.264278   0.000000
    5        8.089466   0.000000

  0.4615385E+00  0.1538462E+00  0.1262379E-14  0.1092399E-01
    1       -0.524413   1.000000
    2        0.169318   1.000028
    3        5.485334  -0.000000
    4        6.127219  -0.000000
    5        7.760580   0.000000

  0.2307692E+00  0.2307692E+00  0.1262379E-14  0.5461994E-02
    1       -1.719890   1.000000
    2        2.793356  -0.000000
    3        3.375125  -0.000000
    4        6.769498   0.000000
    5        7.615606   0.000000

  0.3076923E+00  0.2307692E+00  0.1262379E-14  0.1092399E-01
    1       -1.336703   1.000000
    2        2.062952  -0.000000
    3        3.502296  -0.000000
    4        6.696050   0.000000
    5        7.082568   0.000000

  0.3846154E+00  0.2307692E+00  0.1262379E-14  0.1092399E-01
    1       -0.847861   1.000000
    2        1.212709  -0.007695
    3        3.929649  -0.000000
    4        5.862408  -0.000000
    5        7.486319   0.000000

  0.4615385E+00  0.2307692E+00  0.1262379E-14  0.1092399E-01
    1       -0.256530   1.000000
    2        0.432823   1.011297
    3        4.474356  -0.000000
    4        7.981362   0.000000
    5        9.007462   0.000000

  0.3076923E+00  0.3076923E+00  0.1262379E-14  0.5461994E-02
    1       -0.956113   1.000000
    2        2.207638  -0.000000
    3        2.762497  -0.000000
    4        7.394888   0.000000
    5        8.344317   0.000000

  0.3846154E+00  0.3076923E+00  0.1262379E-14  0.1092399E-01
    1       -0.470800   1.000000
    2        1.556875  -0.000001
    3        3.000104  -0.000000
    4        7.797070   0.000000
    5        8.827196   0.000000

  0.4615385E+00  0.3076923E+00  0.1262379E-14  0.1092399E-01
    1        0.115717   1.000005
    2        0.797334   0.554960
    3        3.535159  -0.000000
    4        4.184434  -0.000000
    5        8.288819   0.000000

  0.3846154E+00  0.3846154E+00  0.1262379E-14  0.5461994E-02
    1        0.009555   1.000000
    2        1.817751  -0.000000
    3        2.337324  -0.000000
    4        4.086486  -0.000000
    5        8.195623   0.000000

  0.4615385E+00  0.3846154E+00  0.1262379E-14  0.1092399E-01
    1        0.588249   1.033122
    2        1.250738  -0.003947
    3        2.691991  -0.000000
    4        3.334516  -0.000000
    5        8.678065   0.000000

  0.4615385E+00  0.4615385E+00  0.1262379E-14  0.5461994E-02
    1        1.148259  -0.019006
    2        1.623017  -0.000000
    3        2.120284  -0.000000
    4        2.588315  -0.000000
    5        9.126317   0.000000

  0.7692308E-01  0.7692308E-01  0.7692308E-01  0.3641329E-02
    1       -2.549585   1.000000
    2        4.600566  -0.000000
    3        4.600566  -0.000000
    4        5.583078  -0.000000
    5        7.206629   0.000000

  0.1538462E+00  0.7692308E-01  0.7692308E-01  0.1092399E-01
    1       -2.382724   1.000000
    2        3.679469  -0.000000
    3        4.749738  -0.000000
    4        5.588424  -0.000000
    5        7.352838   0.000000

  0.2307692E+00  0.7692308E-01  0.7692308E-01  0.1092399E-01
    1       -2.105644   1.000000
    2        2.681665  -0.000000
    3        4.998242  -0.000000
    4        5.800902  -0.000000
    5        7.597072   0.000000

  0.3076923E+00  0.7692308E-01  0.7692308E-01  0.1092399E-01
    1       -1.719890   1.000000
    2        1.730058  -0.000000
    3        5.345910  -0.000000
    4        6.127542  -0.000000
    5        7.940108   0.000000

  0.3846154E+00  0.7692308E-01  0.7692308E-01  0.1092399E-01
    1       -1.227694   1.000000
    2        0.853163   0.323376
    3        5.792514  -0.000000
    4        6.552697   0.000000
    5        7.722788   0.000000

  0.4615385E+00  0.7692308E-01  0.7692308E-01  0.1092399E-01
    1       -0.631991   1.000000
    2        0.063354   1.000001
    3        6.337778   0.000000
    4        6.981367   0.000000
    5        7.070933   0.000000

  0.1538462E+00  0.1538462E+00  0.7692308E-01  0.1092399E-01
    1       -2.216319   1.000000
    2        3.624538  -0.000000
    3        4.106755  -0.000000
    4        5.511205  -0.000000
    5        7.817877   0.000000

  0.2307692E+00  0.1538462E+00  0.7692308E-01  0.2184797E-01
    1       -1.940014   1.000000
    2        2.809401  -0.000000
    3        4.180540  -0.000000
    4        5.715249  -0.000000
    5        8.192022   0.000000

  0.3076923E+00  0.1538462E+00  0.7692308E-01  0.2184797E-01
    1       -1.555356   1.000000
    2        1.878517  -0.000000
    3        4.509959  -0.000000
    4        6.043886  -0.000000
    5        7.704661   0.000000

  0.3846154E+00  0.1538462E+00  0.7692308E-01  0.2184797E-01
    1       -1.064585   1.000000
    2        1.008433  -0.024102
    3        4.951819  -0.000000
    4        6.474171   0.000000
    5        6.874038   0.000000

  0.4615385E+00  0.1538462E+00  0.7692308E-01  0.2184797E-01
    1       -0.470722   1.000000
    2        0.222198   1.000130
    3        5.495096  -0.000000
    4        6.136573  -0.000000
    5        6.998850   0.000000

  0.2307692E+00  0.2307692E+00  0.7692308E-01  0.1092399E-01
    1       -1.664995   1.000000
    2        2.842253  -0.000000
    3        3.408176  -0.000000
    4        5.919413  -0.000000
    5        7.645657   0.000000

  0.3076923E+00  0.2307692E+00  0.7692308E-01  0.2184797E-01
    1       -1.282181   1.000000
    2        2.112338  -0.000000
    3        3.541838  -0.000000
    4        6.247256  -0.000000
    5        6.730427   0.000000

  0.3846154E+00  0.2307692E+00  0.7692308E-01  0.2184797E-01
    1       -0.793838   1.000000
    2        1.263969  -0.003063
    3        3.969298  -0.000000
    4        5.898666  -0.000000
    5        6.675943   0.000000

  0.4615385E+00  0.2307692E+00  0.7692308E-01  0.2184797E-01
    1       -0.203155   1.000000
    2        0.485328   1.021908
    3        4.513119  -0.000000
    4        5.158000  -0.000000
    5        7.197925   0.000000

  0.3076923E+00  0.3076923E+00  0.7692308E-01  0.1092399E-01
    1       -0.901980   1.000000
    2        2.256366  -0.000000
    3        2.809674  -0.000000
    4        5.812466  -0.000000
    5        6.572148   0.000000

  0.3846154E+00  0.3076923E+00  0.7692308E-01  0.2184797E-01
    1       -0.417195   1.000000
    2        1.607294  -0.000000
    3        3.047721  -0.000000
    4        4.975751  -0.000000
    5        6.995888   0.000000

  0.4615385E+00  0.3076923E+00  0.7692308E-01  0.2184797E-01
    1        0.168615   1.000028
    2        0.849249   0.338819
    3        3.581788  -0.000000
    4        4.229776  -0.000000
    5        7.509511   0.000000

  0.3846154E+00  0.3846154E+00  0.7692308E-01  0.1092399E-01
    1        0.062578   1.000001
    2        1.866373  -0.000000
    3        2.389057  -0.000000
    4        4.133254  -0.000000
    5        7.410516   0.000000

  0.4615385E+00  0.3846154E+00  0.7692308E-01  0.2184797E-01
    1        0.640447   1.001656
    2        1.301631  -0.001404
    3        2.742122  -0.000000
    4        3.383143  -0.000000
    5        7.905365   0.000000

  0.4615385E+00  0.4615385E+00  0.7692308E-01  0.1092399E-01
    1        1.199298  -0.009519
    2        1.671590  -0.000000
    3        2.173562  -0.000000
    4        2.639061  -0.000000
    5        8.344891   0.000000

  0.1538462E+00  0.1538462E+00  0.1538462E+00  0.3641329E-02
    1       -2.050385   1.000000
    2        3.772080  -0.000000
    3        3.772080  -0.000000
    4        4.906953  -0.000000
    5        8.935883   0.000000

  0.2307692E+00  0.1538462E+00  0.1538462E+00  0.1092399E-01
    1       -1.774849   1.000000
    2        2.940642  -0.000000
    3        4.018052  -0.000000
    4        4.952179  -0.000000
    5        8.503910   0.000000

  0.3076923E+00  0.1538462E+00  0.1538462E+00  0.1092399E-01
    1       -1.391300   1.000000
    2        2.026146  -0.000000
    3        4.362564  -0.000000
    4        5.253697  -0.000000
    5        7.567573   0.000000

  0.3846154E+00  0.1538462E+00  0.1538462E+00  0.1092399E-01
    1       -0.901983   1.000000
    2        1.162897  -0.015905
    3        4.805762  -0.000000
    4        5.684201  -0.000000
    5        7.535916   0.000000

  0.4615385E+00  0.1538462E+00  0.1538462E+00  0.1092399E-01
    1       -0.310009   1.000000
    2        0.380391   1.004783
    3        5.347805  -0.000000
    4        6.216333  -0.000000
    5        6.837534   0.000000

  0.2307692E+00  0.2307692E+00  0.1538462E+00  0.1092399E-01
    1       -1.500628   1.000000
    2        2.988988  -0.000000
    3        3.463534  -0.000000
    4        4.919016  -0.000000
    5        7.714734   0.000000

  0.3076923E+00  0.2307692E+00  0.1538462E+00  0.2184797E-01
    1       -1.118937   1.000000
    2        2.258876  -0.000000
    3        3.636444  -0.000000
    4        5.211802  -0.000000
    5        6.814814   0.000000

  0.3846154E+00  0.2307692E+00  0.1538462E+00  0.2184797E-01
    1       -0.632110   1.000000
    2        1.416994  -0.000077
    3        4.066443  -0.000000
    4        5.639795  -0.000000
    5        5.987012  -0.000000

  0.4615385E+00  0.2307692E+00  0.1538462E+00  0.2184797E-01
    1       -0.043406   1.000000
    2        0.642376   0.999560
    3        4.607915  -0.000000
    4        5.249532  -0.000000
    5        6.169930  -0.000000

  0.3076923E+00  0.3076923E+00  0.1538462E+00  0.1092399E-01
    1       -0.739923   1.000000
    2        2.402599  -0.000000
    3        2.942555  -0.000000
    4        5.502364  -0.000000
    5        5.928368  -0.000000

  0.3846154E+00  0.3076923E+00  0.1538462E+00  0.2184797E-01
    1       -0.256737   1.000000
    2        1.757901  -0.000000
    3        3.185440  -0.000000
    4        5.101568  -0.000000
    5        5.924660  -0.000000

  0.4615385E+00  0.3076923E+00  0.1538462E+00  0.2184797E-01
    1        0.326907   1.001663
    2        1.004506  -0.021821
    3        3.716938  -0.000000
    4        4.361017  -0.000000
    5        6.444708   0.000000

  0.3846154E+00  0.3846154E+00  0.1538462E+00  0.1092399E-01
    1        0.221255   1.000126
    2        2.012301  -0.000000
    3        2.541183  -0.000000
    4        4.270971  -0.000000
    5        6.335981   0.000000

  0.4615385E+00  0.3846154E+00  0.1538462E+00  0.2184797E-01
    1        0.796619   0.557964
    2        1.453857  -0.000026
    3        2.890537  -0.000000
    4        3.527012  -0.000000
    5        6.833389   0.000000

  0.4615385E+00  0.4615385E+00  0.1538462E+00  0.1092399E-01
    1        1.351996  -0.000435
    2        1.817369  -0.000000
    3        2.331514  -0.000000
    4        2.789878  -0.000000
    5        7.266157   0.000000

  0.2307692E+00  0.2307692E+00  0.2307692E+00  0.3641329E-02
    1       -1.227739   1.000000
    2        3.233689  -0.000000
    3        3.233689  -0.000000
    4        4.365131  -0.000000
    5        7.708313   0.000000

  0.3076923E+00  0.2307692E+00  0.2307692E+00  0.1092399E-01
    1       -0.847961   1.000000
    2        2.492114  -0.000000
    3        3.576568  -0.000000
    4        4.503144  -0.000000
    5        7.354417   0.000000

  0.3846154E+00  0.2307692E+00  0.2307692E+00  0.1092399E-01
    1       -0.363721   1.000000
    2        1.668667  -0.000000
    3        4.017888  -0.000000
    4        4.906809  -0.000000
    5        6.719756   0.000000

  0.4615385E+00  0.2307692E+00  0.2307692E+00  0.1092399E-01
    1        0.221520   1.000127
    2        0.902366   0.152617
    3        4.557954  -0.000000
    4        5.435012  -0.000000
    5        6.050812  -0.000000

  0.3076923E+00  0.3076923E+00  0.2307692E+00  0.1092399E-01
    1       -0.470967   1.000000
    2        2.646494  -0.000000
    3        3.107374  -0.000000
    4        4.561832  -0.000000
    5        6.088759  -0.000000

  0.3846154E+00  0.3076923E+00  0.2307692E+00  0.2184797E-01
    1        0.009470   1.000000
    2        2.006043  -0.000000
    3        3.383012  -0.000000
    4        4.952321  -0.000000
    5        5.283534  -0.000000

  0.4615385E+00  0.3076923E+00  0.2307692E+00  0.2184797E-01
    1        0.589331   1.032878
    2        1.261442  -0.003218
    3        3.913061  -0.000000
    4        4.551322  -0.000000
    5        5.469466  -0.000000

  0.3846154E+00  0.3846154E+00  0.2307692E+00  0.1092399E-01
    1        0.484392   1.021693
    2        2.255711  -0.000000
    3        2.780364  -0.000000
    4        4.489123  -0.000000
    5        5.331546  -0.000000

  0.4615385E+00  0.3846154E+00  0.2307692E+00  0.2184797E-01
    1        1.055419  -0.035458
    2        1.705919  -0.000000
    3        3.128898  -0.000000
    4        3.757898  -0.000000
    5        5.824337  -0.000000

  0.4615385E+00  0.4615385E+00  0.2307692E+00  0.1092399E-01
    1        1.605052  -0.000000
    2        2.060541  -0.000000
    3        2.587344  -0.000000
    4        3.035498  -0.000000
    5        6.248418  -0.000000

  0.3076923E+00  0.3076923E+00  0.3076923E+00  0.3641329E-02
    1       -0.096909   1.000000
    2        2.988313  -0.000000
    3        2.988313  -0.000000
    4        4.087414  -0.000000
    5        6.177714  -0.000000

  0.3846154E+00  0.3076923E+00  0.3076923E+00  0.1092399E-01
    1        0.379419   1.004700
    2        2.340756  -0.000000
    3        3.428390  -0.000000
    4        4.324698  -0.000000
    5        5.928699  -0.000000

  0.4615385E+00  0.3076923E+00  0.3076923E+00  0.1092399E-01
    1        0.953432   0.034867
    2        1.616061  -0.000000
    3        3.967095  -0.000000
    4        4.813647  -0.000000
    5        5.387869  -0.000000

  0.3846154E+00  0.3846154E+00  0.3076923E+00  0.1092399E-01
    1        0.849785   0.336691
    2        2.596875  -0.000000
    3        3.051016  -0.000000
    4        4.476353  -0.000000
    5        4.754442  -0.000000

  0.4615385E+00  0.3846154E+00  0.3076923E+00  0.2184797E-01
    1        1.414210  -0.000084
    2        2.054357  -0.000000
    3        3.425695  -0.000000
    4        4.047417  -0.000000
    5        4.935858  -0.000000

  0.4615385E+00  0.4615385E+00  0.3076923E+00  0.1092399E-01
    1        1.955918  -0.000000
    2        2.401394  -0.000000
    3        2.923643  -0.000000
    4        3.362169  -0.000000
    5        5.327212  -0.000000

  0.3846154E+00  0.3846154E+00  0.3846154E+00  0.3641329E-02
    1        1.313547  -0.001078
    2        3.036159  -0.000000
    3        3.036159  -0.000000
    4        4.083234  -0.000000
    5        4.946623  -0.000000

  0.4615385E+00  0.3846154E+00  0.3846154E+00  0.1092399E-01
    1        1.867592  -0.000000
    2        2.487270  -0.000000
    3        3.573981  -0.000000
    4        4.374844  -0.000000
    5        4.794703  -0.000000

  0.4615385E+00  0.4615385E+00  0.3846154E+00  0.1092399E-01
    1        2.399091  -0.000000
    2        2.840293  -0.000000
    3        3.284203  -0.000000
    4        3.730325  -0.000000
    5        4.537069  -0.000000

  0.4615385E+00  0.4615385E+00  0.4615385E+00  0.3641329E-02
    1        2.916172  -0.000000
    2        3.377675  -0.000000
    3        3.377675  -0.000000
    4        4.013936  -0.000000
    5        4.083570  -0.000000
