unknown system                          
   1.0000000000000000     
     4.055985   -0.000000   -0.000000
    -0.000000    4.055985   -0.000000
    -0.000000    0.000000    4.055985
   Na
     2
Direct
 -0.000000 -0.000000 -0.000000
  0.500000  0.500000  0.500000

   48   48   48
 -.41246590391E+02 -.40916725919E+02 -.39864023650E+02 -.38118560032E+02 -.35595695820E+02
 -.32324912964E+02 -.28251085444E+02 -.23520950443E+02 -.18367998249E+02 -.13166021524E+02
 -.82690891297E+01 -.42810147058E+01 -.14348001719E+01 -.20704451765E+00 0.90677139139E-02
 0.68763388954E+00 0.13027986666E+01 0.17848042294E+01 0.21906865594E+01 0.25004064459E+01
 0.27568951036E+01 0.29356778351E+01 0.30741132217E+01 0.31423103884E+01 0.31760581588E+01
 0.31423103884E+01 0.30741132219E+01 0.29356778353E+01 0.27568951038E+01 0.25004064461E+01
 0.21906865597E+01 0.17848042298E+01 0.13027986670E+01 0.68763388997E+00 0.90677143569E-02
 -.20704451720E+00 -.14348001715E+01 -.42810147054E+01 -.82690891293E+01 -.13166021524E+02
 -.18367998249E+02 -.23520950442E+02 -.28251085444E+02 -.32324912963E+02 -.35595695820E+02
 -.38118560031E+02 -.39864023650E+02 -.40916725919E+02 -.40916725919E+02 -.40589586269E+02
 -.39528745824E+02 -.37777608563E+02 -.35232384729E+02 -.31945195093E+02 -.27866815226E+02
 -.23183520013E+02 -.18040791291E+02 -.12876121592E+02 -.80521089334E+01 -.41223341215E+01
 -.13516296307E+01 -.19138212851E+00 0.20013426992E-01 0.71394722361E+00 0.13146661281E+01
 0.17995926230E+01 0.21963199165E+01 0.25092120643E+01 0.27606425911E+01 0.29409592787E+01
 0.30745456824E+01 0.31451848402E+01 0.31755981970E+01 0.31451848402E+01 0.30745456825E+01
 0.29409592789E+01 0.27606425914E+01 0.25092120646E+01 0.21963199168E+01 0.17995926233E+01
 0.13146661284E+01 0.71394722404E+00 0.20013427433E-01 -.19138212806E+00 -.13516296303E+01
 -.41223341211E+01 -.80521089330E+01 -.12876121592E+02 -.18040791291E+02 -.23183520013E+02
 -.27866815225E+02 -.31945195092E+02 -.35232384728E+02 -.37777608563E+02 -.39528745824E+02
 -.40589586269E+02 -.39864023650E+02 -.39528745824E+02 -.38457782037E+02 -.36688544331E+02
 -.34138521248E+02 -.30851483239E+02 -.26781054806E+02 -.22110467372E+02 -.17076289433E+02
 -.12053064562E+02 -.73935457819E+01 -.36827818226E+01 -.11096105618E+01 -.16203388129E+00
 0.64746161711E-01 0.78609093897E+00 0.13539673216E+01 0.18384999782E+01 0.22185999439E+01
 0.25314956176E+01 0.27705254053E+01 0.29544358332E+01 0.30800979282E+01 0.31555380292E+01
 0.31796365915E+01 0.31555380292E+01 0.30800979284E+01 0.29544358334E+01 0.27705254055E+01
 0.25314956179E+01 0.22185999442E+01 0.18384999786E+01 0.13539673220E+01 0.78609093940E+00
 0.64746162162E-01 -.16203388083E+00 -.11096105614E+01 -.36827818222E+01 -.73935457815E+01
 -.12053064561E+02 -.17076289433E+02 -.22110467372E+02 -.26781054806E+02 -.30851483239E+02
 -.34138521247E+02 -.36688544331E+02 -.38457782037E+02 -.39528745824E+02 -.38118560032E+02
 -.37777608563E+02 -.36688544331E+02 -.34891663373E+02 -.32305678425E+02 -.28992832025E+02
 -.24945337003E+02 -.20403036521E+02 -.15516846276E+02 -.10717918615E+02 -.63845422344E+01
 -.29950380297E+01 -.77963461988E+00 -.13133587006E+00 0.15550610649E+00 0.89957799314E+00
 0.14172423897E+01 0.19026793489E+01 0.22518415569E+01 0.25691808813E+01 0.27876480998E+01
 0.29772078334E+01 0.30862800871E+01 0.31706999181E+01 0.31825152891E+01 0.31706999182E+01
 0.30862800872E+01 0.29772078336E+01 0.27876481000E+01 0.25691808816E+01 0.22518415572E+01
 0.19026793493E+01 0.14172423901E+01 0.89957799358E+00 0.15550610694E+00 -.13133586959E+00
 -.77963461941E+00 -.29950380292E+01 -.63845422340E+01 -.10717918615E+02 -.15516846276E+02
 -.20403036521E+02 -.24945337002E+02 -.28992832024E+02 -.32305678425E+02 -.34891663372E+02
 -.36688544331E+02 -.37777608563E+02 -.35595695820E+02 -.35232384729E+02 -.34138521248E+02
 -.32305678425E+02 -.29728407282E+02 -.26426066795E+02 -.22471012689E+02 -.18050866320E+02
 -.13445150445E+02 -.89956974205E+01 -.50970469105E+01 -.21642203250E+01 -.44443300258E+00
 -.11300670530E+00 0.32111110970E+00 0.10319828929E+01 0.15131263935E+01 0.19786652825E+01
 0.23048437959E+01 0.26127495728E+01 0.28135461292E+01 0.30025344957E+01 0.31001467536E+01
 0.31885775590E+01 0.31924687764E+01 0.31885775591E+01 0.31001467537E+01 0.30025344959E+01
 0.28135461294E+01 0.26127495731E+01 0.23048437963E+01 0.19786652828E+01 0.15131263940E+01
 0.10319828933E+01 0.32111111018E+00 -.11300670482E+00 -.44443300210E+00 -.21642203245E+01
 -.50970469101E+01 -.89956974201E+01 -.13445150445E+02 -.18050866320E+02 -.22471012689E+02
 -.26426066795E+02 -.29728407282E+02 -.32305678425E+02 -.34138521247E+02 -.35232384729E+02
 -.32324912964E+02 -.31945195093E+02 -.30851483239E+02 -.28992832025E+02 -.26426066795E+02
 -.23158712119E+02 -.19374727387E+02 -.15230320799E+02 -.10985940105E+02 -.69942555080E+01
 -.36934950599E+01 -.12955407288E+01 -.22430409874E+00 -.55243356010E-01 0.55846016722E+00
 0.11707286708E+01 0.16419451125E+01 0.20598959529E+01 0.23767178729E+01 0.26570375175E+01
 0.28547058864E+01 0.30250466616E+01 0.31226727363E+01 0.32000468407E+01 0.32092548156E+01
 0.32000468407E+01 0.31226727364E+01 0.30250466618E+01 0.28547058866E+01 0.26570375178E+01
 0.23767178733E+01 0.20598959533E+01 0.16419451129E+01 0.11707286713E+01 0.55846016771E+00
 -.55243355509E-01 -.22430409824E+00 -.12955407283E+01 -.36934950594E+01 -.69942555076E+01
 -.10985940104E+02 -.15230320798E+02 -.19374727387E+02 -.23158712119E+02 -.26426066795E+02
 -.28992832025E+02 -.30851483239E+02 -.31945195093E+02 -.28251085444E+02 -.27866815226E+02
 -.26781054806E+02 -.24945337003E+02 -.22471012689E+02 -.19374727387E+02 -.15861894122E+02
 -.12029693649E+02 -.83147627539E+01 -.49388904702E+01 -.22881524164E+01 -.58947881951E+00
 -.14879521637E+00 0.12243442788E+00 0.82710355468E+00 0.13188378472E+01 0.17950321067E+01
 0.21422359833E+01 0.24678941992E+01 0.26975986752E+01 0.29074667405E+01 0.30409935672E+01
 0.31573709675E+01 0.32055759826E+01 0.32381621722E+01 0.32055759827E+01 0.31573709677E+01
 0.30409935674E+01 0.29074667408E+01 0.26975986756E+01 0.24678941995E+01 0.21422359837E+01
 0.17950321071E+01 0.13188378477E+01 0.82710355519E+00 0.12243442839E+00 -.14879521585E+00
 -.58947881900E+00 -.22881524159E+01 -.49388904697E+01 -.83147627534E+01 -.12029693649E+02
 -.15861894121E+02 -.19374727387E+02 -.22471012689E+02 -.24945337002E+02 -.26781054806E+02
 -.27866815226E+02 -.23520950443E+02 -.23183520013E+02 -.22110467372E+02 -.20403036521E+02
 -.18050866320E+02 -.15230320799E+02 -.12029693649E+02 -.87810725002E+01 -.56505219955E+01
 -.30034065858E+01 -.10954185497E+01 -.21014832343E+00 -.10330603461E+00 0.46555650778E+00
 0.10522542650E+01 0.15152529211E+01 0.19299031844E+01 0.22550899542E+01 0.25439868234E+01
 0.27592073050E+01 0.29493548966E+01 0.30727659138E+01 0.31779660214E+01 0.32223660211E+01
 0.32520356656E+01 0.32223660212E+01 0.31779660216E+01 0.30727659141E+01 0.29493548969E+01
 0.27592073054E+01 0.25439868238E+01 0.22550899546E+01 0.19299031849E+01 0.15152529216E+01
 0.10522542655E+01 0.46555650832E+00 -.10330603406E+00 -.21014832289E+00 -.10954185491E+01
 -.30034065853E+01 -.56505219950E+01 -.87810724998E+01 -.12029693649E+02 -.15230320798E+02
 -.18050866320E+02 -.20403036521E+02 -.22110467372E+02 -.23183520013E+02 -.18367998249E+02
 -.18040791291E+02 -.17076289433E+02 -.15516846276E+02 -.13445150445E+02 -.10985940105E+02
 -.83147627539E+01 -.56505219955E+01 -.32584975880E+01 -.14334702171E+01 -.32125079046E+00
 -.16944272921E+00 0.18351552684E+00 0.81844211211E+00 0.12762018978E+01 0.17244347936E+01
 0.20605737335E+01 0.23804294276E+01 0.26136622069E+01 0.28329065135E+01 0.29783755510E+01
 0.31156844927E+01 0.31872235236E+01 0.32521891593E+01 0.32549431608E+01 0.32521891594E+01
 0.31872235238E+01 0.31156844930E+01 0.29783755513E+01 0.28329065139E+01 0.26136622073E+01
 0.23804294280E+01 0.20605737340E+01 0.17244347941E+01 0.12762018984E+01 0.81844211267E+00
 0.18351552742E+00 -.16944272865E+00 -.32125078991E+00 -.14334702165E+01 -.32584975875E+01
 -.56505219951E+01 -.83147627535E+01 -.10985940105E+02 -.13445150445E+02 -.15516846276E+02
 -.17076289433E+02 -.18040791291E+02 -.13166021524E+02 -.12876121592E+02 -.12053064562E+02
 -.10717918615E+02 -.89956974205E+01 -.69942555080E+01 -.49388904702E+01 -.30034065858E+01
 -.14334702171E+01 -.37984908949E+00 -.18216365628E+00 0.29029762249E-01 0.63222881457E+00
 0.10992554029E+01 0.15424444338E+01 0.18972059461E+01 0.22218310522E+01 0.24788445926E+01
 0.27074019232E+01 0.28815879400E+01 0.30323145276E+01 0.31345199782E+01 0.32163201749E+01
 0.32553748507E+01 0.32760464878E+01 0.32553748508E+01 0.32163201750E+01 0.31345199784E+01
 0.30323145279E+01 0.28815879404E+01 0.27074019236E+01 0.24788445931E+01 0.22218310527E+01
 0.18972059467E+01 0.15424444344E+01 0.10992554035E+01 0.63222881517E+00 0.29029762840E-01
 -.18216365571E+00 -.37984908895E+00 -.14334702166E+01 -.30034065854E+01 -.49388904698E+01
 -.69942555077E+01 -.89956974202E+01 -.10717918615E+02 -.12053064562E+02 -.12876121592E+02
 -.82690891297E+01 -.80521089334E+01 -.73935457819E+01 -.63845422344E+01 -.50970469105E+01
 -.36934950599E+01 -.22881524164E+01 -.10954185497E+01 -.32125079046E+00 -.18216365628E+00
 -.17006088009E-01 0.52958006951E+00 0.98817924100E+00 0.14095255125E+01 0.17695396459E+01
 0.20888763177E+01 0.23589080358E+01 0.25911389060E+01 0.27839288359E+01 0.29425722707E+01
 0.30669573080E+01 0.31634434038E+01 0.32304767387E+01 0.32708925534E+01 0.32837146936E+01
 0.32708925535E+01 0.32304767389E+01 0.31634434040E+01 0.30669573083E+01 0.29425722712E+01
 0.27839288364E+01 0.25911389065E+01 0.23589080363E+01 0.20888763183E+01 0.17695396465E+01
 0.14095255132E+01 0.98817924164E+00 0.52958007013E+00 -.17006087408E-01 -.18216365571E+00
 -.32125078993E+00 -.10954185492E+01 -.22881524160E+01 -.36934950595E+01 -.50970469102E+01
 -.63845422342E+01 -.73935457818E+01 -.80521089334E+01 -.42810147058E+01 -.41223341215E+01
 -.36827818226E+01 -.29950380297E+01 -.21642203250E+01 -.12955407288E+01 -.58947881951E+00
 -.21014832343E+00 -.16944272921E+00 0.29029762249E-01 0.52958006951E+00 0.94980368040E+00
 0.13402427801E+01 0.16870536313E+01 0.19941319656E+01 0.22633804771E+01 0.24946980491E+01
 0.26940603592E+01 0.28580544676E+01 0.29957627875E+01 0.31038300407E+01 0.31869837733E+01
 0.32428596803E+01 0.32778914732E+01 0.32878774740E+01 0.32778914732E+01 0.32428596805E+01
 0.31869837735E+01 0.31038300411E+01 0.29957627879E+01 0.28580544681E+01 0.26940603598E+01
 0.24946980497E+01 0.22633804777E+01 0.19941319662E+01 0.16870536319E+01 0.13402427807E+01
 0.94980368105E+00 0.52958007014E+00 0.29029762848E-01 -.16944272865E+00 -.21014832292E+00
 -.58947881906E+00 -.12955407284E+01 -.21642203246E+01 -.29950380294E+01 -.36827818225E+01
 -.41223341215E+01 -.14348001719E+01 -.13516296307E+01 -.11096105618E+01 -.77963461988E+00
 -.44443300258E+00 -.22430409874E+00 -.14879521637E+00 -.10330603461E+00 0.18351552684E+00
 0.63222881457E+00 0.98817924100E+00 0.13402427801E+01 0.16584726565E+01 0.19448584479E+01
 0.22018840173E+01 0.24254965998E+01 0.26221888557E+01 0.27868637188E+01 0.29293711699E+01
 0.30424866121E+01 0.31341983658E+01 0.32025964077E+01 0.32535616919E+01 0.32816071165E+01
 0.32927469104E+01 0.32816071166E+01 0.32535616921E+01 0.32025964080E+01 0.31341983662E+01
 0.30424866126E+01 0.29293711704E+01 0.27868637194E+01 0.26221888563E+01 0.24254966004E+01
 0.22018840180E+01 0.19448584486E+01 0.16584726572E+01 0.13402427808E+01 0.98817924167E+00
 0.63222881520E+00 0.18351552743E+00 -.10330603408E+00 -.14879521590E+00 -.22430409834E+00
 -.44443300225E+00 -.77963461963E+00 -.11096105617E+01 -.13516296307E+01 -.20704451765E+00
 -.19138212851E+00 -.16203388129E+00 -.13133587006E+00 -.11300670530E+00 -.55243356010E-01
 0.12243442788E+00 0.46555650778E+00 0.81844211211E+00 0.10992554029E+01 0.14095255125E+01
 0.16870536313E+01 0.19448584479E+01 0.21806791999E+01 0.23892846858E+01 0.25759897624E+01
 0.27352580880E+01 0.28753183224E+01 0.29882503016E+01 0.30847126329E+01 0.31607568988E+01
 0.32193737996E+01 0.32573178747E+01 0.32815263364E+01 0.32878774739E+01 0.32815263365E+01
 0.32573178749E+01 0.32193737999E+01 0.31607568992E+01 0.30847126333E+01 0.29882503022E+01
 0.28753183230E+01 0.27352580886E+01 0.25759897631E+01 0.23892846865E+01 0.21806792006E+01
 0.19448584486E+01 0.16870536320E+01 0.14095255132E+01 0.10992554035E+01 0.81844211272E+00
 0.46555650833E+00 0.12243442837E+00 -.55243355589E-01 -.11300670496E+00 -.13133586980E+00
 -.16203388112E+00 -.19138212842E+00 0.90677139139E-02 0.20013426992E-01 0.64746161711E-01
 0.15550610649E+00 0.32111110970E+00 0.55846016722E+00 0.82710355468E+00 0.10522542650E+01
 0.12762018978E+01 0.15424444338E+01 0.17695396459E+01 0.19941319656E+01 0.22018840173E+01
 0.23892846858E+01 0.25600745922E+01 0.27080999458E+01 0.28401362996E+01 0.29485431271E+01
 0.30447296754E+01 0.31203982667E+01 0.31792650214E+01 0.32230857912E+01 0.32570340701E+01
 0.32759950680E+01 0.32837146936E+01 0.32759950681E+01 0.32570340703E+01 0.32230857915E+01
 0.31792650219E+01 0.31203982673E+01 0.30447296760E+01 0.29485431278E+01 0.28401363003E+01
 0.27080999465E+01 0.25600745930E+01 0.23892846866E+01 0.22018840181E+01 0.19941319663E+01
 0.17695396467E+01 0.15424444345E+01 0.12762018985E+01 0.10522542656E+01 0.82710355519E+00
 0.55846016766E+00 0.32111111006E+00 0.15550610676E+00 0.64746161895E-01 0.20013427084E-01
 0.68763388954E+00 0.71394722361E+00 0.78609093897E+00 0.89957799314E+00 0.10319828929E+01
 0.11707286708E+01 0.13188378472E+01 0.15152529211E+01 0.17244347936E+01 0.18972059461E+01
 0.20888763177E+01 0.22633804771E+01 0.24254965998E+01 0.25759897624E+01 0.27080999458E+01
 0.28279523482E+01 0.29276608505E+01 0.30183097223E+01 0.30881879927E+01 0.31457051745E+01
 0.31951229796E+01 0.32342012881E+01 0.32581770098E+01 0.32725568297E+01 0.32760464878E+01
 0.32725568299E+01 0.32581770100E+01 0.32342012885E+01 0.31951229800E+01 0.31457051750E+01
 0.30881879934E+01 0.30183097230E+01 0.29276608512E+01 0.28279523490E+01 0.27080999466E+01
 0.25759897632E+01 0.24254966006E+01 0.22633804779E+01 0.20888763185E+01 0.18972059469E+01
 0.17244347942E+01 0.15152529217E+01 0.13188378477E+01 0.11707286713E+01 0.10319828933E+01
 0.89957799342E+00 0.78609093916E+00 0.71394722370E+00 0.13027986666E+01 0.13146661281E+01
 0.13539673216E+01 0.14172423897E+01 0.15131263935E+01 0.16419451125E+01 0.17950321067E+01
 0.19299031844E+01 0.20605737335E+01 0.22218310522E+01 0.23589080358E+01 0.24946980491E+01
 0.26221888557E+01 0.27352580880E+01 0.28401362996E+01 0.29276608505E+01 0.30090245103E+01
 0.30706445380E+01 0.31251229199E+01 0.31748116517E+01 0.32078885405E+01 0.32273245048E+01
 0.32421413488E+01 0.32509954306E+01 0.32549431607E+01 0.32509954307E+01 0.32421413491E+01
 0.32273245052E+01 0.32078885410E+01 0.31748116523E+01 0.31251229205E+01 0.30706445388E+01
 0.30090245110E+01 0.29276608513E+01 0.28401363005E+01 0.27352580888E+01 0.26221888565E+01
 0.24946980500E+01 0.23589080366E+01 0.22218310529E+01 0.20605737342E+01 0.19299031850E+01
 0.17950321072E+01 0.16419451130E+01 0.15131263939E+01 0.14172423900E+01 0.13539673218E+01
 0.13146661282E+01 0.17848042294E+01 0.17995926230E+01 0.18384999782E+01 0.19026793489E+01
 0.19786652825E+01 0.20598959529E+01 0.21422359833E+01 0.22550899542E+01 0.23804294276E+01
 0.24788445926E+01 0.25911389060E+01 0.26940603592E+01 0.27868637188E+01 0.28753183224E+01
 0.29485431271E+01 0.30183097223E+01 0.30706445380E+01 0.31182738239E+01 0.31628649885E+01
 0.31852217700E+01 0.32021693951E+01 0.32226581578E+01 0.32388968998E+01 0.32494275652E+01
 0.32520356656E+01 0.32494275653E+01 0.32388969001E+01 0.32226581582E+01 0.32021693956E+01
 0.31852217707E+01 0.31628649892E+01 0.31182738246E+01 0.30706445389E+01 0.30183097231E+01
 0.29485431280E+01 0.28753183232E+01 0.27868637196E+01 0.26940603601E+01 0.25911389068E+01
 0.24788445934E+01 0.23804294283E+01 0.22550899548E+01 0.21422359838E+01 0.20598959534E+01
 0.19786652829E+01 0.19026793492E+01 0.18384999784E+01 0.17995926231E+01 0.21906865594E+01
 0.21963199165E+01 0.22185999439E+01 0.22518415569E+01 0.23048437959E+01 0.23767178729E+01
 0.24678941992E+01 0.25439868234E+01 0.26136622069E+01 0.27074019232E+01 0.27839288359E+01
 0.28580544676E+01 0.29293711699E+01 0.29882503016E+01 0.30447296754E+01 0.30881879927E+01
 0.31251229199E+01 0.31628649885E+01 0.31766271122E+01 0.31917469273E+01 0.32158213123E+01
 0.32294631400E+01 0.32365397960E+01 0.32367294229E+01 0.32381621721E+01 0.32367294230E+01
 0.32365397963E+01 0.32294631403E+01 0.32158213128E+01 0.31917469278E+01 0.31766271130E+01
 0.31628649893E+01 0.31251229207E+01 0.30881879937E+01 0.30447296763E+01 0.29882503025E+01
 0.29293711708E+01 0.28580544685E+01 0.27839288368E+01 0.27074019240E+01 0.26136622077E+01
 0.25439868241E+01 0.24678941997E+01 0.23767178734E+01 0.23048437963E+01 0.22518415572E+01
 0.22185999441E+01 0.21963199166E+01 0.25004064459E+01 0.25092120643E+01 0.25314956176E+01
 0.25691808813E+01 0.26127495728E+01 0.26570375175E+01 0.26975986752E+01 0.27592073050E+01
 0.28329065135E+01 0.28815879400E+01 0.29425722707E+01 0.29957627875E+01 0.30424866121E+01
 0.30847126329E+01 0.31203982667E+01 0.31457051745E+01 0.31748116517E+01 0.31852217700E+01
 0.31917469273E+01 0.32135415115E+01 0.32182209916E+01 0.32186985388E+01 0.32123999265E+01
 0.32123495329E+01 0.32092548155E+01 0.32123495331E+01 0.32123999268E+01 0.32186985393E+01
 0.32182209921E+01 0.32135415121E+01 0.31917469279E+01 0.31852217709E+01 0.31748116525E+01
 0.31457051754E+01 0.31203982677E+01 0.30847126338E+01 0.30424866130E+01 0.29957627884E+01
 0.29425722716E+01 0.28815879409E+01 0.28329065143E+01 0.27592073057E+01 0.26975986758E+01
 0.26570375180E+01 0.26127495732E+01 0.25691808817E+01 0.25314956178E+01 0.25092120644E+01
 0.27568951036E+01 0.27606425911E+01 0.27705254053E+01 0.27876480998E+01 0.28135461292E+01
 0.28547058864E+01 0.29074667405E+01 0.29493548966E+01 0.29783755510E+01 0.30323145276E+01
 0.30669573080E+01 0.31038300407E+01 0.31341983658E+01 0.31607568988E+01 0.31792650214E+01
 0.31951229796E+01 0.32078885405E+01 0.32021693951E+01 0.32158213123E+01 0.32182209916E+01
 0.32126483064E+01 0.32011137446E+01 0.31962335529E+01 0.31917281216E+01 0.31924687763E+01
 0.31917281217E+01 0.31962335531E+01 0.32011137450E+01 0.32126483070E+01 0.32182209922E+01
 0.32158213130E+01 0.32021693959E+01 0.32078885415E+01 0.31951229805E+01 0.31792650225E+01
 0.31607568998E+01 0.31341983668E+01 0.31038300417E+01 0.30669573089E+01 0.30323145284E+01
 0.29783755518E+01 0.29493548973E+01 0.29074667412E+01 0.28547058869E+01 0.28135461296E+01
 0.27876481001E+01 0.27705254055E+01 0.27606425912E+01 0.29356778351E+01 0.29409592787E+01
 0.29544358332E+01 0.29772078334E+01 0.30025344957E+01 0.30250466616E+01 0.30409935672E+01
 0.30727659138E+01 0.31156844927E+01 0.31345199782E+01 0.31634434038E+01 0.31869837733E+01
 0.32025964077E+01 0.32193737996E+01 0.32230857912E+01 0.32342012881E+01 0.32273245048E+01
 0.32226581578E+01 0.32294631400E+01 0.32186985388E+01 0.32011137446E+01 0.31890302102E+01
 0.31843504597E+01 0.31826769691E+01 0.31825152891E+01 0.31826769692E+01 0.31843504600E+01
 0.31890302106E+01 0.32011137452E+01 0.32186985396E+01 0.32294631407E+01 0.32226581586E+01
 0.32273245058E+01 0.32342012890E+01 0.32230857922E+01 0.32193738006E+01 0.32025964087E+01
 0.31869837742E+01 0.31634434047E+01 0.31345199790E+01 0.31156844935E+01 0.30727659146E+01
 0.30409935678E+01 0.30250466622E+01 0.30025344961E+01 0.29772078337E+01 0.29544358335E+01
 0.29409592788E+01 0.30741132217E+01 0.30745456824E+01 0.30800979282E+01 0.30862800871E+01
 0.31001467536E+01 0.31226727363E+01 0.31573709675E+01 0.31779660214E+01 0.31872235236E+01
 0.32163201749E+01 0.32304767387E+01 0.32428596803E+01 0.32535616919E+01 0.32573178747E+01
 0.32570340701E+01 0.32581770098E+01 0.32421413488E+01 0.32388968998E+01 0.32365397960E+01
 0.32123999265E+01 0.31962335529E+01 0.31843504597E+01 0.31822249861E+01 0.31781397112E+01
 0.31796365915E+01 0.31781397113E+01 0.31822249864E+01 0.31843504601E+01 0.31962335534E+01
 0.32123999272E+01 0.32365397968E+01 0.32388969005E+01 0.32421413498E+01 0.32581770108E+01
 0.32570340710E+01 0.32573178757E+01 0.32535616928E+01 0.32428596813E+01 0.32304767396E+01
 0.32163201757E+01 0.31872235244E+01 0.31779660222E+01 0.31573709682E+01 0.31226727368E+01
 0.31001467541E+01 0.30862800874E+01 0.30800979285E+01 0.30745456825E+01 0.31423103884E+01
 0.31451848402E+01 0.31555380292E+01 0.31706999181E+01 0.31885775590E+01 0.32000468407E+01
 0.32055759826E+01 0.32223660211E+01 0.32521891593E+01 0.32553748507E+01 0.32708925534E+01
 0.32778914732E+01 0.32816071165E+01 0.32815263364E+01 0.32759950680E+01 0.32725568297E+01
 0.32509954306E+01 0.32494275652E+01 0.32367294229E+01 0.32123495329E+01 0.31917281216E+01
 0.31826769691E+01 0.31781397112E+01 0.31768212696E+01 0.31755981969E+01 0.31768212698E+01
 0.31781397114E+01 0.31826769695E+01 0.31917281222E+01 0.32123495337E+01 0.32367294237E+01
 0.32494275659E+01 0.32509954315E+01 0.32725568308E+01 0.32759950689E+01 0.32815263374E+01
 0.32816071175E+01 0.32778914741E+01 0.32708925543E+01 0.32553748516E+01 0.32521891601E+01
 0.32223660219E+01 0.32055759833E+01 0.32000468412E+01 0.31885775595E+01 0.31706999185E+01
 0.31555380294E+01 0.31451848403E+01 0.31760581588E+01 0.31755981970E+01 0.31796365915E+01
 0.31825152891E+01 0.31924687764E+01 0.32092548156E+01 0.32381621722E+01 0.32520356656E+01
 0.32549431608E+01 0.32760464878E+01 0.32837146936E+01 0.32878774740E+01 0.32927469104E+01
 0.32878774739E+01 0.32837146936E+01 0.32760464878E+01 0.32549431607E+01 0.32520356656E+01
 0.32381621721E+01 0.32092548155E+01 0.31924687763E+01 0.31825152891E+01 0.31796365915E+01
 0.31755981969E+01 0.31760581588E+01 0.31755981971E+01 0.31796365917E+01 0.31825152895E+01
 0.31924687769E+01 0.32092548163E+01 0.32381621730E+01 0.32520356663E+01 0.32549431616E+01
 0.32760464888E+01 0.32837146946E+01 0.32878774750E+01 0.32927469114E+01 0.32878774750E+01
 0.32837146946E+01 0.32760464887E+01 0.32549431616E+01 0.32520356663E+01 0.32381621729E+01
 0.32092548162E+01 0.31924687768E+01 0.31825152895E+01 0.31796365917E+01 0.31755981971E+01
 0.31423103884E+01 0.31451848402E+01 0.31555380292E+01 0.31706999182E+01 0.31885775591E+01
 0.32000468407E+01 0.32055759827E+01 0.32223660212E+01 0.32521891594E+01 0.32553748508E+01
 0.32708925535E+01 0.32778914732E+01 0.32816071166E+01 0.32815263365E+01 0.32759950681E+01
 0.32725568299E+01 0.32509954307E+01 0.32494275653E+01 0.32367294230E+01 0.32123495331E+01
 0.31917281217E+01 0.31826769692E+01 0.31781397113E+01 0.31768212698E+01 0.31755981971E+01
 0.31768212699E+01 0.31781397116E+01 0.31826769696E+01 0.31917281223E+01 0.32123495338E+01
 0.32367294238E+01 0.32494275660E+01 0.32509954317E+01 0.32725568309E+01 0.32759950690E+01
 0.32815263375E+01 0.32816071176E+01 0.32778914742E+01 0.32708925544E+01 0.32553748517E+01
 0.32521891602E+01 0.32223660219E+01 0.32055759833E+01 0.32000468413E+01 0.31885775596E+01
 0.31706999185E+01 0.31555380295E+01 0.31451848404E+01 0.30741132219E+01 0.30745456825E+01
 0.30800979284E+01 0.30862800872E+01 0.31001467537E+01 0.31226727364E+01 0.31573709677E+01
 0.31779660216E+01 0.31872235238E+01 0.32163201750E+01 0.32304767389E+01 0.32428596805E+01
 0.32535616921E+01 0.32573178749E+01 0.32570340703E+01 0.32581770100E+01 0.32421413491E+01
 0.32388969001E+01 0.32365397963E+01 0.32123999268E+01 0.31962335531E+01 0.31843504600E+01
 0.31822249864E+01 0.31781397114E+01 0.31796365917E+01 0.31781397116E+01 0.31822249866E+01
 0.31843504604E+01 0.31962335537E+01 0.32123999275E+01 0.32365397971E+01 0.32388969007E+01
 0.32421413501E+01 0.32581770110E+01 0.32570340712E+01 0.32573178759E+01 0.32535616930E+01
 0.32428596815E+01 0.32304767398E+01 0.32163201759E+01 0.31872235246E+01 0.31779660223E+01
 0.31573709683E+01 0.31226727369E+01 0.31001467542E+01 0.30862800876E+01 0.30800979286E+01
 0.30745456827E+01 0.29356778353E+01 0.29409592789E+01 0.29544358334E+01 0.29772078336E+01
 0.30025344959E+01 0.30250466618E+01 0.30409935674E+01 0.30727659141E+01 0.31156844930E+01
 0.31345199784E+01 0.31634434040E+01 0.31869837735E+01 0.32025964080E+01 0.32193737999E+01
 0.32230857915E+01 0.32342012885E+01 0.32273245052E+01 0.32226581582E+01 0.32294631403E+01
 0.32186985393E+01 0.32011137450E+01 0.31890302106E+01 0.31843504601E+01 0.31826769695E+01
 0.31825152895E+01 0.31826769696E+01 0.31843504604E+01 0.31890302111E+01 0.32011137456E+01
 0.32186985400E+01 0.32294631411E+01 0.32226581589E+01 0.32273245062E+01 0.32342012894E+01
 0.32230857925E+01 0.32193738009E+01 0.32025964089E+01 0.31869837745E+01 0.31634434049E+01
 0.31345199793E+01 0.31156844938E+01 0.30727659148E+01 0.30409935680E+01 0.30250466624E+01
 0.30025344963E+01 0.29772078339E+01 0.29544358336E+01 0.29409592790E+01 0.27568951038E+01
 0.27606425914E+01 0.27705254055E+01 0.27876481000E+01 0.28135461294E+01 0.28547058866E+01
 0.29074667408E+01 0.29493548969E+01 0.29783755513E+01 0.30323145279E+01 0.30669573083E+01
 0.31038300411E+01 0.31341983662E+01 0.31607568992E+01 0.31792650219E+01 0.31951229800E+01
 0.32078885410E+01 0.32021693956E+01 0.32158213128E+01 0.32182209921E+01 0.32126483070E+01
 0.32011137452E+01 0.31962335534E+01 0.31917281222E+01 0.31924687769E+01 0.31917281223E+01
 0.31962335537E+01 0.32011137456E+01 0.32126483076E+01 0.32182209928E+01 0.32158213134E+01
 0.32021693964E+01 0.32078885420E+01 0.31951229809E+01 0.31792650229E+01 0.31607569002E+01
 0.31341983672E+01 0.31038300420E+01 0.30669573093E+01 0.30323145287E+01 0.29783755521E+01
 0.29493548976E+01 0.29074667414E+01 0.28547058872E+01 0.28135461299E+01 0.27876481003E+01
 0.27705254057E+01 0.27606425915E+01 0.25004064461E+01 0.25092120646E+01 0.25314956179E+01
 0.25691808816E+01 0.26127495731E+01 0.26570375178E+01 0.26975986756E+01 0.27592073054E+01
 0.28329065139E+01 0.28815879404E+01 0.29425722712E+01 0.29957627879E+01 0.30424866126E+01
 0.30847126333E+01 0.31203982673E+01 0.31457051750E+01 0.31748116523E+01 0.31852217707E+01
 0.31917469278E+01 0.32135415121E+01 0.32182209922E+01 0.32186985396E+01 0.32123999272E+01
 0.32123495337E+01 0.32092548163E+01 0.32123495338E+01 0.32123999275E+01 0.32186985400E+01
 0.32182209928E+01 0.32135415126E+01 0.31917469284E+01 0.31852217716E+01 0.31748116531E+01
 0.31457051759E+01 0.31203982682E+01 0.30847126343E+01 0.30424866135E+01 0.29957627888E+01
 0.29425722720E+01 0.28815879412E+01 0.28329065147E+01 0.27592073060E+01 0.26975986762E+01
 0.26570375183E+01 0.26127495735E+01 0.25691808819E+01 0.25314956181E+01 0.25092120647E+01
 0.21906865597E+01 0.21963199168E+01 0.22185999442E+01 0.22518415572E+01 0.23048437963E+01
 0.23767178733E+01 0.24678941995E+01 0.25439868238E+01 0.26136622073E+01 0.27074019236E+01
 0.27839288364E+01 0.28580544681E+01 0.29293711704E+01 0.29882503022E+01 0.30447296760E+01
 0.30881879934E+01 0.31251229205E+01 0.31628649892E+01 0.31766271130E+01 0.31917469279E+01
 0.32158213130E+01 0.32294631407E+01 0.32365397968E+01 0.32367294237E+01 0.32381621730E+01
 0.32367294238E+01 0.32365397971E+01 0.32294631411E+01 0.32158213134E+01 0.31917469284E+01
 0.31766271138E+01 0.31628649900E+01 0.31251229213E+01 0.30881879943E+01 0.30447296768E+01
 0.29882503031E+01 0.29293711713E+01 0.28580544690E+01 0.27839288372E+01 0.27074019244E+01
 0.26136622081E+01 0.25439868245E+01 0.24678942001E+01 0.23767178738E+01 0.23048437967E+01
 0.22518415575E+01 0.22185999445E+01 0.21963199169E+01 0.17848042298E+01 0.17995926233E+01
 0.18384999786E+01 0.19026793493E+01 0.19786652828E+01 0.20598959533E+01 0.21422359837E+01
 0.22550899546E+01 0.23804294280E+01 0.24788445931E+01 0.25911389065E+01 0.26940603598E+01
 0.27868637194E+01 0.28753183230E+01 0.29485431278E+01 0.30183097230E+01 0.30706445388E+01
 0.31182738246E+01 0.31628649893E+01 0.31852217709E+01 0.32021693959E+01 0.32226581586E+01
 0.32388969005E+01 0.32494275659E+01 0.32520356663E+01 0.32494275660E+01 0.32388969007E+01
 0.32226581589E+01 0.32021693964E+01 0.31852217716E+01 0.31628649900E+01 0.31182738252E+01
 0.30706445397E+01 0.30183097238E+01 0.29485431287E+01 0.28753183238E+01 0.27868637202E+01
 0.26940603606E+01 0.25911389073E+01 0.24788445939E+01 0.23804294288E+01 0.22550899553E+01
 0.21422359843E+01 0.20598959538E+01 0.19786652833E+01 0.19026793496E+01 0.18384999788E+01
 0.17995926234E+01 0.13027986670E+01 0.13146661284E+01 0.13539673220E+01 0.14172423901E+01
 0.15131263940E+01 0.16419451129E+01 0.17950321071E+01 0.19299031849E+01 0.20605737340E+01
 0.22218310527E+01 0.23589080363E+01 0.24946980497E+01 0.26221888563E+01 0.27352580886E+01
 0.28401363003E+01 0.29276608512E+01 0.30090245110E+01 0.30706445389E+01 0.31251229207E+01
 0.31748116525E+01 0.32078885415E+01 0.32273245058E+01 0.32421413498E+01 0.32509954315E+01
 0.32549431616E+01 0.32509954317E+01 0.32421413501E+01 0.32273245062E+01 0.32078885420E+01
 0.31748116531E+01 0.31251229213E+01 0.30706445397E+01 0.30090245118E+01 0.29276608520E+01
 0.28401363012E+01 0.27352580895E+01 0.26221888571E+01 0.24946980506E+01 0.23589080371E+01
 0.22218310534E+01 0.20605737347E+01 0.19299031855E+01 0.17950321077E+01 0.16419451134E+01
 0.15131263944E+01 0.14172423904E+01 0.13539673222E+01 0.13146661285E+01 0.68763388997E+00
 0.71394722404E+00 0.78609093940E+00 0.89957799358E+00 0.10319828933E+01 0.11707286713E+01
 0.13188378477E+01 0.15152529216E+01 0.17244347941E+01 0.18972059467E+01 0.20888763183E+01
 0.22633804777E+01 0.24254966004E+01 0.25759897631E+01 0.27080999465E+01 0.28279523490E+01
 0.29276608513E+01 0.30183097231E+01 0.30881879937E+01 0.31457051754E+01 0.31951229805E+01
 0.32342012890E+01 0.32581770108E+01 0.32725568308E+01 0.32760464888E+01 0.32725568309E+01
 0.32581770110E+01 0.32342012894E+01 0.31951229809E+01 0.31457051759E+01 0.30881879943E+01
 0.30183097238E+01 0.29276608520E+01 0.28279523498E+01 0.27080999473E+01 0.25759897639E+01
 0.24254966012E+01 0.22633804785E+01 0.20888763191E+01 0.18972059474E+01 0.17244347948E+01
 0.15152529222E+01 0.13188378482E+01 0.11707286717E+01 0.10319828937E+01 0.89957799387E+00