 running on    1 total cores
 distrk:  each k-point on    1 cores,    1 groups
 distr:  one band on    1 cores,    1 groups
 running on    1 total cores
 distrk:  each k-point on    1 cores,    1 groups
 distr:  one band on    1 cores,    1 groups
 running on    1 total cores
 distrk:  each k-point on    1 cores,    1 groups
 distr:  one band on    1 cores,    1 groups
 running on    1 total cores
 distrk:  each k-point on    1 cores,    1 groups
 distr:  one band on    1 cores,    1 groups
 vasp.6.2.1 16May21 (build Dec 20 2021 17:02:34) complex                         
 vasp.6.2.1 16May21 (build Dec 20 2021 17:02:34) complex                         
 POSCAR found type information on POSCAR Na
 POSCAR found :  1 types and       2 ions
 scaLAPACK will be used
 vasp.6.2.1 16May21 (build Dec 20 2021 17:02:34) complex                         
 POSCAR found type information on POSCAR Na
 POSCAR found :  1 types and       2 ions
 scaLAPACK will be used
 LDA part: xc-table for Ceperly-Alder, standard interpolation
 vasp.6.2.1 16May21 (build Dec 20 2021 17:02:34) complex                         
 LDA part: xc-table for Ceperly-Alder, standard interpolation
 POSCAR found type information on POSCAR Na
 POSCAR found :  1 types and       2 ions
 scaLAPACK will be used
 POSCAR found type information on POSCAR Na
 found WAVECAR, reading the header
 POSCAR found :  1 types and       2 ions
  number of k-points has changed, file:    10 present:     4
  trying to continue reading WAVECAR, but it might fail
 WAVECAR: different cutoff or change in lattice found
 scaLAPACK will be used
 LDA part: xc-table for Ceperly-Alder, standard interpolation
 LDA part: xc-table for Ceperly-Alder, standard interpolation
 found WAVECAR, reading the header
  number of k-points has changed, file:    10 present:     4
  trying to continue reading WAVECAR, but it might fail
 WAVECAR: different cutoff or change in lattice found
 POSCAR, INCAR and KPOINTS ok, starting setup
 found WAVECAR, reading the header
  number of k-points has changed, file:    10 present:     4
  trying to continue reading WAVECAR, but it might fail
 WAVECAR: different cutoff or change in lattice found
 FFT: planning ...
 reading WAVECAR
 -----------------------------------------------------------------------------
|                                                                             |
|     EEEEEEE  RRRRRR   RRRRRR   OOOOOOO  RRRRRR      ###     ###     ###     |
|     E        R     R  R     R  O     O  R     R     ###     ###     ###     |
|     E        R     R  R     R  O     O  R     R     ###     ###     ###     |
|     EEEEE    RRRRRR   RRRRRR   O     O  RRRRRR       #       #       #      |
|     E        R   R    R   R    O     O  R   R                               |
|     E        R    R   R    R   O     O  R    R      ###     ###     ###     |
|     EEEEEEE  R     R  R     R  OOOOOOO  R     R     ###     ###     ###     |
|                                                                             |
|     ERROR: while reading WAVECAR, plane wave coefficients changed 179       |
|     925                                                                     |
|                                                                             |
|       ---->  I REFUSE TO CONTINUE WITH THIS SICK JOB ... BYE!!! <----       |
|                                                                             |
 -----------------------------------------------------------------------------

 found WAVECAR, reading the header
  number of k-points has changed, file:    10 present:     4
  trying to continue reading WAVECAR, but it might fail
 WAVECAR: different cutoff or change in lattice found
 POSCAR, INCAR and KPOINTS ok, starting setup
 FFT: planning ...
 reading WAVECAR
 -----------------------------------------------------------------------------
|                                                                             |
|     EEEEEEE  RRRRRR   RRRRRR   OOOOOOO  RRRRRR      ###     ###     ###     |
|     E        R     R  R     R  O     O  R     R     ###     ###     ###     |
|     E        R     R  R     R  O     O  R     R     ###     ###     ###     |
|     EEEEE    RRRRRR   RRRRRR   O     O  RRRRRR       #       #       #      |
|     E        R   R    R   R    O     O  R   R                               |
|     E        R    R   R    R   O     O  R    R      ###     ###     ###     |
|     EEEEEEE  R     R  R     R  OOOOOOO  R     R     ###     ###     ###     |
|                                                                             |
|     ERROR: while reading WAVECAR, plane wave coefficients changed 179       |
|     925                                                                     |
|                                                                             |
|       ---->  I REFUSE TO CONTINUE WITH THIS SICK JOB ... BYE!!! <----       |
|                                                                             |
 -----------------------------------------------------------------------------

STOP 1
 POSCAR, INCAR and KPOINTS ok, starting setup
 FFT: planning ...
 reading WAVECAR
 -----------------------------------------------------------------------------
|                                                                             |
|     EEEEEEE  RRRRRR   RRRRRR   OOOOOOO  RRRRRR      ###     ###     ###     |
|     E        R     R  R     R  O     O  R     R     ###     ###     ###     |
|     E        R     R  R     R  O     O  R     R     ###     ###     ###     |
|     EEEEE    RRRRRR   RRRRRR   O     O  RRRRRR       #       #       #      |
|     E        R   R    R   R    O     O  R   R                               |
|     E        R    R   R    R   O     O  R    R      ###     ###     ###     |
|     EEEEEEE  R     R  R     R  OOOOOOO  R     R     ###     ###     ###     |
|                                                                             |
|     ERROR: while reading WAVECAR, plane wave coefficients changed 179       |
|     925                                                                     |
|                                                                             |
|       ---->  I REFUSE TO CONTINUE WITH THIS SICK JOB ... BYE!!! <----       |
|                                                                             |
 -----------------------------------------------------------------------------

 POSCAR, INCAR and KPOINTS ok, starting setup
 FFT: planning ...
 reading WAVECAR
 -----------------------------------------------------------------------------
|                                                                             |
|     EEEEEEE  RRRRRR   RRRRRR   OOOOOOO  RRRRRR      ###     ###     ###     |
|     E        R     R  R     R  O     O  R     R     ###     ###     ###     |
|     E        R     R  R     R  O     O  R     R     ###     ###     ###     |
|     EEEEE    RRRRRR   RRRRRR   O     O  RRRRRR       #       #       #      |
|     E        R   R    R   R    O     O  R   R                               |
|     E        R    R   R    R   O     O  R    R      ###     ###     ###     |
|     EEEEEEE  R     R  R     R  OOOOOOO  R     R     ###     ###     ###     |
|                                                                             |
|     ERROR: while reading WAVECAR, plane wave coefficients changed 179       |
|     925                                                                     |
|                                                                             |
|       ---->  I REFUSE TO CONTINUE WITH THIS SICK JOB ... BYE!!! <----       |
|                                                                             |
 -----------------------------------------------------------------------------

STOP 1
STOP 1
STOP 1
 running on    1 total cores
 distrk:  each k-point on    1 cores,    1 groups
 distr:  one band on    1 cores,    1 groups
 running on    1 total cores
 distrk:  each k-point on    1 cores,    1 groups
 distr:  one band on    1 cores,    1 groups
 running on    1 total cores
 distrk:  each k-point on    1 cores,    1 groups
 distr:  one band on    1 cores,    1 groups
 running on    1 total cores
 distrk:  each k-point on    1 cores,    1 groups
 distr:  one band on    1 cores,    1 groups
 vasp.6.2.1 16May21 (build Dec 20 2021 17:02:34) complex                         
 vasp.6.2.1 16May21 (build Dec 20 2021 17:02:34) complex                         
 POSCAR found type information on POSCAR Na
 POSCAR found :  1 types and       2 ions
 scaLAPACK will be used
 vasp.6.2.1 16May21 (build Dec 20 2021 17:02:34) complex                         
 POSCAR found type information on POSCAR Na
 POSCAR found :  1 types and       2 ions
 scaLAPACK will be used
 LDA part: xc-table for Ceperly-Alder, standard interpolation
 vasp.6.2.1 16May21 (build Dec 20 2021 17:02:34) complex                         
 LDA part: xc-table for Ceperly-Alder, standard interpolation
 POSCAR found type information on POSCAR Na
 POSCAR found :  1 types and       2 ions
 scaLAPACK will be used
 POSCAR found type information on POSCAR Na
 POSCAR found :  1 types and       2 ions
 found WAVECAR, reading the header
 WAVECAR: different cutoff or change in lattice found
 scaLAPACK will be used
 LDA part: xc-table for Ceperly-Alder, standard interpolation
 LDA part: xc-table for Ceperly-Alder, standard interpolation
 found WAVECAR, reading the header
 WAVECAR: different cutoff or change in lattice found
 POSCAR, INCAR and KPOINTS ok, starting setup
 found WAVECAR, reading the header
 WAVECAR: different cutoff or change in lattice found
 FFT: planning ...
 reading WAVECAR
 -----------------------------------------------------------------------------
|                                                                             |
|     EEEEEEE  RRRRRR   RRRRRR   OOOOOOO  RRRRRR      ###     ###     ###     |
|     E        R     R  R     R  O     O  R     R     ###     ###     ###     |
|     E        R     R  R     R  O     O  R     R     ###     ###     ###     |
|     EEEEE    RRRRRR   RRRRRR   O     O  RRRRRR       #       #       #      |
|     E        R   R    R   R    O     O  R   R                               |
|     E        R    R   R    R   O     O  R    R      ###     ###     ###     |
|     EEEEEEE  R     R  R     R  OOOOOOO  R     R     ###     ###     ###     |
|                                                                             |
|     ERROR: while reading WAVECAR, plane wave coefficients changed 179       |
|     925                                                                     |
|                                                                             |
|       ---->  I REFUSE TO CONTINUE WITH THIS SICK JOB ... BYE!!! <----       |
|                                                                             |
 -----------------------------------------------------------------------------

 found WAVECAR, reading the header
 WAVECAR: different cutoff or change in lattice found
 POSCAR, INCAR and KPOINTS ok, starting setup
 FFT: planning ...
 reading WAVECAR
 -----------------------------------------------------------------------------
|                                                                             |
|     EEEEEEE  RRRRRR   RRRRRR   OOOOOOO  RRRRRR      ###     ###     ###     |
|     E        R     R  R     R  O     O  R     R     ###     ###     ###     |
|     E        R     R  R     R  O     O  R     R     ###     ###     ###     |
|     EEEEE    RRRRRR   RRRRRR   O     O  RRRRRR       #       #       #      |
|     E        R   R    R   R    O     O  R   R                               |
|     E        R    R   R    R   O     O  R    R      ###     ###     ###     |
|     EEEEEEE  R     R  R     R  OOOOOOO  R     R     ###     ###     ###     |
|                                                                             |
|     ERROR: while reading WAVECAR, plane wave coefficients changed 179       |
|     925                                                                     |
|                                                                             |
|       ---->  I REFUSE TO CONTINUE WITH THIS SICK JOB ... BYE!!! <----       |
|                                                                             |
 -----------------------------------------------------------------------------

STOP 1
 POSCAR, INCAR and KPOINTS ok, starting setup
 FFT: planning ...
 reading WAVECAR
 -----------------------------------------------------------------------------
|                                                                             |
|     EEEEEEE  RRRRRR   RRRRRR   OOOOOOO  RRRRRR      ###     ###     ###     |
|     E        R     R  R     R  O     O  R     R     ###     ###     ###     |
|     E        R     R  R     R  O     O  R     R     ###     ###     ###     |
|     EEEEE    RRRRRR   RRRRRR   O     O  RRRRRR       #       #       #      |
|     E        R   R    R   R    O     O  R   R                               |
|     E        R    R   R    R   O     O  R    R      ###     ###     ###     |
|     EEEEEEE  R     R  R     R  OOOOOOO  R     R     ###     ###     ###     |
|                                                                             |
|     ERROR: while reading WAVECAR, plane wave coefficients changed 179       |
|     925                                                                     |
|                                                                             |
|       ---->  I REFUSE TO CONTINUE WITH THIS SICK JOB ... BYE!!! <----       |
|                                                                             |
 -----------------------------------------------------------------------------

STOP 1
 POSCAR, INCAR and KPOINTS ok, starting setup
 FFT: planning ...
 reading WAVECAR
 -----------------------------------------------------------------------------
|                                                                             |
|     EEEEEEE  RRRRRR   RRRRRR   OOOOOOO  RRRRRR      ###     ###     ###     |
|     E        R     R  R     R  O     O  R     R     ###     ###     ###     |
|     E        R     R  R     R  O     O  R     R     ###     ###     ###     |
|     EEEEE    RRRRRR   RRRRRR   O     O  RRRRRR       #       #       #      |
|     E        R   R    R   R    O     O  R   R                               |
|     E        R    R   R    R   O     O  R    R      ###     ###     ###     |
|     EEEEEEE  R     R  R     R  OOOOOOO  R     R     ###     ###     ###     |
|                                                                             |
|     ERROR: while reading WAVECAR, plane wave coefficients changed 179       |
|     925                                                                     |
|                                                                             |
|       ---->  I REFUSE TO CONTINUE WITH THIS SICK JOB ... BYE!!! <----       |
|                                                                             |
 -----------------------------------------------------------------------------

STOP 1
STOP 1
 running on    1 total cores
 distrk:  each k-point on    1 cores,    1 groups
 distr:  one band on    1 cores,    1 groups
 running on    1 total cores
 distrk:  each k-point on    1 cores,    1 groups
 distr:  one band on    1 cores,    1 groups
 running on    1 total cores
 distrk:  each k-point on    1 cores,    1 groups
 distr:  one band on    1 cores,    1 groups
 running on    1 total cores
 distrk:  each k-point on    1 cores,    1 groups
 distr:  one band on    1 cores,    1 groups
 vasp.6.2.1 16May21 (build Dec 20 2021 17:02:34) complex                         
 vasp.6.2.1 16May21 (build Dec 20 2021 17:02:34) complex                         
 POSCAR found type information on POSCAR Na
 POSCAR found :  1 types and       2 ions
 scaLAPACK will be used
 vasp.6.2.1 16May21 (build Dec 20 2021 17:02:34) complex                         
 vasp.6.2.1 16May21 (build Dec 20 2021 17:02:34) complex                         
 POSCAR found type information on POSCAR Na
 POSCAR found :  1 types and       2 ions
 scaLAPACK will be used
 LDA part: xc-table for Ceperly-Alder, standard interpolation
 POSCAR found type information on POSCAR Na
 POSCAR found :  1 types and       2 ions
 scaLAPACK will be used
 LDA part: xc-table for Ceperly-Alder, standard interpolation
 POSCAR found type information on POSCAR Na
 POSCAR found :  1 types and       2 ions
 scaLAPACK will be used
 LDA part: xc-table for Ceperly-Alder, standard interpolation
 LDA part: xc-table for Ceperly-Alder, standard interpolation
 found WAVECAR, reading the header
  number of k-points has changed, file:    10 present:    20
  trying to continue reading WAVECAR, but it might fail
 WAVECAR: different cutoff or change in lattice found
 POSCAR, INCAR and KPOINTS ok, starting setup
 found WAVECAR, reading the header
  number of k-points has changed, file:    10 present:    20
  trying to continue reading WAVECAR, but it might fail
 WAVECAR: different cutoff or change in lattice found
 found WAVECAR, reading the header
  number of k-points has changed, file:    10 present:    20
  trying to continue reading WAVECAR, but it might fail
 WAVECAR: different cutoff or change in lattice found
 FFT: planning ...
 reading WAVECAR
 -----------------------------------------------------------------------------
|                                                                             |
|     EEEEEEE  RRRRRR   RRRRRR   OOOOOOO  RRRRRR      ###     ###     ###     |
|     E        R     R  R     R  O     O  R     R     ###     ###     ###     |
|     E        R     R  R     R  O     O  R     R     ###     ###     ###     |
|     EEEEE    RRRRRR   RRRRRR   O     O  RRRRRR       #       #       #      |
|     E        R   R    R   R    O     O  R   R                               |
|     E        R    R   R    R   O     O  R    R      ###     ###     ###     |
|     EEEEEEE  R     R  R     R  OOOOOOO  R     R     ###     ###     ###     |
|                                                                             |
|     ERROR: while reading WAVECAR, plane wave coefficients changed 179       |
|     925                                                                     |
|                                                                             |
|       ---->  I REFUSE TO CONTINUE WITH THIS SICK JOB ... BYE!!! <----       |
|                                                                             |
 -----------------------------------------------------------------------------

 found WAVECAR, reading the header
  number of k-points has changed, file:    10 present:    20
  trying to continue reading WAVECAR, but it might fail
 WAVECAR: different cutoff or change in lattice found
STOP 1
 POSCAR, INCAR and KPOINTS ok, starting setup
 FFT: planning ...
 reading WAVECAR
 -----------------------------------------------------------------------------
|                                                                             |
|     EEEEEEE  RRRRRR   RRRRRR   OOOOOOO  RRRRRR      ###     ###     ###     |
|     E        R     R  R     R  O     O  R     R     ###     ###     ###     |
|     E        R     R  R     R  O     O  R     R     ###     ###     ###     |
|     EEEEE    RRRRRR   RRRRRR   O     O  RRRRRR       #       #       #      |
|     E        R   R    R   R    O     O  R   R                               |
|     E        R    R   R    R   O     O  R    R      ###     ###     ###     |
|     EEEEEEE  R     R  R     R  OOOOOOO  R     R     ###     ###     ###     |
|                                                                             |
|     ERROR: while reading WAVECAR, plane wave coefficients changed 179       |
|     925                                                                     |
|                                                                             |
|       ---->  I REFUSE TO CONTINUE WITH THIS SICK JOB ... BYE!!! <----       |
|                                                                             |
 -----------------------------------------------------------------------------

 POSCAR, INCAR and KPOINTS ok, starting setup
 FFT: planning ...
 reading WAVECAR
 -----------------------------------------------------------------------------
|                                                                             |
|     EEEEEEE  RRRRRR   RRRRRR   OOOOOOO  RRRRRR      ###     ###     ###     |
|     E        R     R  R     R  O     O  R     R     ###     ###     ###     |
|     E        R     R  R     R  O     O  R     R     ###     ###     ###     |
|     EEEEE    RRRRRR   RRRRRR   O     O  RRRRRR       #       #       #      |
|     E        R   R    R   R    O     O  R   R                               |
|     E        R    R   R    R   O     O  R    R      ###     ###     ###     |
|     EEEEEEE  R     R  R     R  OOOOOOO  R     R     ###     ###     ###     |
|                                                                             |
|     ERROR: while reading WAVECAR, plane wave coefficients changed 179       |
|     925                                                                     |
|                                                                             |
|       ---->  I REFUSE TO CONTINUE WITH THIS SICK JOB ... BYE!!! <----       |
|                                                                             |
 -----------------------------------------------------------------------------

 POSCAR, INCAR and KPOINTS ok, starting setup
 FFT: planning ...
 reading WAVECAR
 -----------------------------------------------------------------------------
|                                                                             |
|     EEEEEEE  RRRRRR   RRRRRR   OOOOOOO  RRRRRR      ###     ###     ###     |
|     E        R     R  R     R  O     O  R     R     ###     ###     ###     |
|     E        R     R  R     R  O     O  R     R     ###     ###     ###     |
|     EEEEE    RRRRRR   RRRRRR   O     O  RRRRRR       #       #       #      |
|     E        R   R    R   R    O     O  R   R                               |
|     E        R    R   R    R   O     O  R    R      ###     ###     ###     |
|     EEEEEEE  R     R  R     R  OOOOOOO  R     R     ###     ###     ###     |
|                                                                             |
|     ERROR: while reading WAVECAR, plane wave coefficients changed 179       |
|     925                                                                     |
|                                                                             |
|       ---->  I REFUSE TO CONTINUE WITH THIS SICK JOB ... BYE!!! <----       |
|                                                                             |
 -----------------------------------------------------------------------------

STOP 1
STOP 1
STOP 1
 running on    1 total cores
 distrk:  each k-point on    1 cores,    1 groups
 distr:  one band on    1 cores,    1 groups
 running on    1 total cores
 distrk:  each k-point on    1 cores,    1 groups
 distr:  one band on    1 cores,    1 groups
 running on    1 total cores
 distrk:  each k-point on    1 cores,    1 groups
 distr:  one band on    1 cores,    1 groups
 running on    1 total cores
 distrk:  each k-point on    1 cores,    1 groups
 distr:  one band on    1 cores,    1 groups
 vasp.6.2.1 16May21 (build Dec 20 2021 17:02:34) complex                         
 vasp.6.2.1 16May21 (build Dec 20 2021 17:02:34) complex                         
 POSCAR found type information on POSCAR Na
 POSCAR found :  1 types and       2 ions
 scaLAPACK will be used
 vasp.6.2.1 16May21 (build Dec 20 2021 17:02:34) complex                         
 POSCAR found type information on POSCAR Na
 POSCAR found :  1 types and       2 ions
 scaLAPACK will be used
 LDA part: xc-table for Ceperly-Alder, standard interpolation
 vasp.6.2.1 16May21 (build Dec 20 2021 17:02:34) complex                         
 LDA part: xc-table for Ceperly-Alder, standard interpolation
 POSCAR found type information on POSCAR Na
 POSCAR found :  1 types and       2 ions
 scaLAPACK will be used
 found WAVECAR, reading the header
  number of k-points has changed, file:    10 present:    35
  trying to continue reading WAVECAR, but it might fail
 WAVECAR: different cutoff or change in lattice found
 POSCAR found type information on POSCAR Na
 POSCAR found :  1 types and       2 ions
 scaLAPACK will be used
 LDA part: xc-table for Ceperly-Alder, standard interpolation
 LDA part: xc-table for Ceperly-Alder, standard interpolation
 found WAVECAR, reading the header
  number of k-points has changed, file:    10 present:    35
  trying to continue reading WAVECAR, but it might fail
 WAVECAR: different cutoff or change in lattice found
 found WAVECAR, reading the header
  number of k-points has changed, file:    10 present:    35
  trying to continue reading WAVECAR, but it might fail
 WAVECAR: different cutoff or change in lattice found
 POSCAR, INCAR and KPOINTS ok, starting setup
 FFT: planning ...
 reading WAVECAR
 -----------------------------------------------------------------------------
|                                                                             |
|     EEEEEEE  RRRRRR   RRRRRR   OOOOOOO  RRRRRR      ###     ###     ###     |
|     E        R     R  R     R  O     O  R     R     ###     ###     ###     |
|     E        R     R  R     R  O     O  R     R     ###     ###     ###     |
|     EEEEE    RRRRRR   RRRRRR   O     O  RRRRRR       #       #       #      |
|     E        R   R    R   R    O     O  R   R                               |
|     E        R    R   R    R   O     O  R    R      ###     ###     ###     |
|     EEEEEEE  R     R  R     R  OOOOOOO  R     R     ###     ###     ###     |
|                                                                             |
|     ERROR: while reading WAVECAR, plane wave coefficients changed 179       |
|     925                                                                     |
|                                                                             |
|       ---->  I REFUSE TO CONTINUE WITH THIS SICK JOB ... BYE!!! <----       |
|                                                                             |
 -----------------------------------------------------------------------------

 found WAVECAR, reading the header
  number of k-points has changed, file:    10 present:    35
  trying to continue reading WAVECAR, but it might fail
 WAVECAR: different cutoff or change in lattice found
 POSCAR, INCAR and KPOINTS ok, starting setup
 FFT: planning ...
 reading WAVECAR
 -----------------------------------------------------------------------------
|                                                                             |
|     EEEEEEE  RRRRRR   RRRRRR   OOOOOOO  RRRRRR      ###     ###     ###     |
|     E        R     R  R     R  O     O  R     R     ###     ###     ###     |
|     E        R     R  R     R  O     O  R     R     ###     ###     ###     |
|     EEEEE    RRRRRR   RRRRRR   O     O  RRRRRR       #       #       #      |
|     E        R   R    R   R    O     O  R   R                               |
|     E        R    R   R    R   O     O  R    R      ###     ###     ###     |
|     EEEEEEE  R     R  R     R  OOOOOOO  R     R     ###     ###     ###     |
|                                                                             |
|     ERROR: while reading WAVECAR, plane wave coefficients changed 179       |
|     925                                                                     |
|                                                                             |
|       ---->  I REFUSE TO CONTINUE WITH THIS SICK JOB ... BYE!!! <----       |
|                                                                             |
 -----------------------------------------------------------------------------

 POSCAR, INCAR and KPOINTS ok, starting setup
 FFT: planning ...
 reading WAVECAR
 -----------------------------------------------------------------------------
|                                                                             |
|     EEEEEEE  RRRRRR   RRRRRR   OOOOOOO  RRRRRR      ###     ###     ###     |
|     E        R     R  R     R  O     O  R     R     ###     ###     ###     |
|     E        R     R  R     R  O     O  R     R     ###     ###     ###     |
|     EEEEE    RRRRRR   RRRRRR   O     O  RRRRRR       #       #       #      |
|     E        R   R    R   R    O     O  R   R                               |
|     E        R    R   R    R   O     O  R    R      ###     ###     ###     |
|     EEEEEEE  R     R  R     R  OOOOOOO  R     R     ###     ###     ###     |
|                                                                             |
|     ERROR: while reading WAVECAR, plane wave coefficients changed 179       |
|     925                                                                     |
|                                                                             |
|       ---->  I REFUSE TO CONTINUE WITH THIS SICK JOB ... BYE!!! <----       |
|                                                                             |
 -----------------------------------------------------------------------------

STOP 1
 POSCAR, INCAR and KPOINTS ok, starting setup
 FFT: planning ...
 reading WAVECAR
 -----------------------------------------------------------------------------
|                                                                             |
|     EEEEEEE  RRRRRR   RRRRRR   OOOOOOO  RRRRRR      ###     ###     ###     |
|     E        R     R  R     R  O     O  R     R     ###     ###     ###     |
|     E        R     R  R     R  O     O  R     R     ###     ###     ###     |
|     EEEEE    RRRRRR   RRRRRR   O     O  RRRRRR       #       #       #      |
|     E        R   R    R   R    O     O  R   R                               |
|     E        R    R   R    R   O     O  R    R      ###     ###     ###     |
|     EEEEEEE  R     R  R     R  OOOOOOO  R     R     ###     ###     ###     |
|                                                                             |
|     ERROR: while reading WAVECAR, plane wave coefficients changed 179       |
|     925                                                                     |
|                                                                             |
|       ---->  I REFUSE TO CONTINUE WITH THIS SICK JOB ... BYE!!! <----       |
|                                                                             |
 -----------------------------------------------------------------------------

STOP 1
STOP 1
STOP 1
 running on    1 total cores
 distrk:  each k-point on    1 cores,    1 groups
 distr:  one band on    1 cores,    1 groups
 running on    1 total cores
 distrk:  each k-point on    1 cores,    1 groups
 distr:  one band on    1 cores,    1 groups
 running on    1 total cores
 distrk:  each k-point on    1 cores,    1 groups
 distr:  one band on    1 cores,    1 groups
 running on    1 total cores
 distrk:  each k-point on    1 cores,    1 groups
 distr:  one band on    1 cores,    1 groups
 vasp.6.2.1 16May21 (build Dec 20 2021 17:02:34) complex                         
 vasp.6.2.1 16May21 (build Dec 20 2021 17:02:34) complex                         
 POSCAR found type information on POSCAR Na
 POSCAR found :  1 types and       2 ions
 scaLAPACK will be used
 vasp.6.2.1 16May21 (build Dec 20 2021 17:02:34) complex                         
 POSCAR found type information on POSCAR Na
 POSCAR found :  1 types and       2 ions
 scaLAPACK will be used
 LDA part: xc-table for Ceperly-Alder, standard interpolation
 vasp.6.2.1 16May21 (build Dec 20 2021 17:02:34) complex                         
 POSCAR found type information on POSCAR Na
 POSCAR found :  1 types and       2 ions
 scaLAPACK will be used
 LDA part: xc-table for Ceperly-Alder, standard interpolation
 POSCAR found type information on POSCAR Na
 POSCAR found :  1 types and       2 ions
 scaLAPACK will be used
 LDA part: xc-table for Ceperly-Alder, standard interpolation
 LDA part: xc-table for Ceperly-Alder, standard interpolation
 found WAVECAR, reading the header
  number of k-points has changed, file:    10 present:    56
  trying to continue reading WAVECAR, but it might fail
 WAVECAR: different cutoff or change in lattice found
 found WAVECAR, reading the header
  number of k-points has changed, file:    10 present:    56
  trying to continue reading WAVECAR, but it might fail
 WAVECAR: different cutoff or change in lattice found
 found WAVECAR, reading the header
  number of k-points has changed, file:    10 present:    56
  trying to continue reading WAVECAR, but it might fail
 WAVECAR: different cutoff or change in lattice found
 found WAVECAR, reading the header
  number of k-points has changed, file:    10 present:    56
  trying to continue reading WAVECAR, but it might fail
 WAVECAR: different cutoff or change in lattice found
 POSCAR, INCAR and KPOINTS ok, starting setup
 FFT: planning ...
 reading WAVECAR
 -----------------------------------------------------------------------------
|                                                                             |
|     EEEEEEE  RRRRRR   RRRRRR   OOOOOOO  RRRRRR      ###     ###     ###     |
|     E        R     R  R     R  O     O  R     R     ###     ###     ###     |
|     E        R     R  R     R  O     O  R     R     ###     ###     ###     |
|     EEEEE    RRRRRR   RRRRRR   O     O  RRRRRR       #       #       #      |
|     E        R   R    R   R    O     O  R   R                               |
|     E        R    R   R    R   O     O  R    R      ###     ###     ###     |
|     EEEEEEE  R     R  R     R  OOOOOOO  R     R     ###     ###     ###     |
|                                                                             |
|     ERROR: while reading WAVECAR, plane wave coefficients changed 179       |
|     925                                                                     |
|                                                                             |
|       ---->  I REFUSE TO CONTINUE WITH THIS SICK JOB ... BYE!!! <----       |
|                                                                             |
 -----------------------------------------------------------------------------

 POSCAR, INCAR and KPOINTS ok, starting setup
 FFT: planning ...
 reading WAVECAR
 -----------------------------------------------------------------------------
|                                                                             |
|     EEEEEEE  RRRRRR   RRRRRR   OOOOOOO  RRRRRR      ###     ###     ###     |
|     E        R     R  R     R  O     O  R     R     ###     ###     ###     |
|     E        R     R  R     R  O     O  R     R     ###     ###     ###     |
|     EEEEE    RRRRRR   RRRRRR   O     O  RRRRRR       #       #       #      |
|     E        R   R    R   R    O     O  R   R                               |
|     E        R    R   R    R   O     O  R    R      ###     ###     ###     |
|     EEEEEEE  R     R  R     R  OOOOOOO  R     R     ###     ###     ###     |
|                                                                             |
|     ERROR: while reading WAVECAR, plane wave coefficients changed 179       |
|     925                                                                     |
|                                                                             |
|       ---->  I REFUSE TO CONTINUE WITH THIS SICK JOB ... BYE!!! <----       |
|                                                                             |
 -----------------------------------------------------------------------------

 POSCAR, INCAR and KPOINTS ok, starting setup
 FFT: planning ...
 reading WAVECAR
 -----------------------------------------------------------------------------
|                                                                             |
|     EEEEEEE  RRRRRR   RRRRRR   OOOOOOO  RRRRRR      ###     ###     ###     |
|     E        R     R  R     R  O     O  R     R     ###     ###     ###     |
|     E        R     R  R     R  O     O  R     R     ###     ###     ###     |
|     EEEEE    RRRRRR   RRRRRR   O     O  RRRRRR       #       #       #      |
|     E        R   R    R   R    O     O  R   R                               |
|     E        R    R   R    R   O     O  R    R      ###     ###     ###     |
|     EEEEEEE  R     R  R     R  OOOOOOO  R     R     ###     ###     ###     |
|                                                                             |
|     ERROR: while reading WAVECAR, plane wave coefficients changed 179       |
|     925                                                                     |
|                                                                             |
|       ---->  I REFUSE TO CONTINUE WITH THIS SICK JOB ... BYE!!! <----       |
|                                                                             |
 -----------------------------------------------------------------------------

 POSCAR, INCAR and KPOINTS ok, starting setup
 FFT: planning ...
 reading WAVECAR
 -----------------------------------------------------------------------------
|                                                                             |
|     EEEEEEE  RRRRRR   RRRRRR   OOOOOOO  RRRRRR      ###     ###     ###     |
|     E        R     R  R     R  O     O  R     R     ###     ###     ###     |
|     E        R     R  R     R  O     O  R     R     ###     ###     ###     |
|     EEEEE    RRRRRR   RRRRRR   O     O  RRRRRR       #       #       #      |
|     E        R   R    R   R    O     O  R   R                               |
|     E        R    R   R    R   O     O  R    R      ###     ###     ###     |
|     EEEEEEE  R     R  R     R  OOOOOOO  R     R     ###     ###     ###     |
|                                                                             |
|     ERROR: while reading WAVECAR, plane wave coefficients changed 179       |
|     925                                                                     |
|                                                                             |
|       ---->  I REFUSE TO CONTINUE WITH THIS SICK JOB ... BYE!!! <----       |
|                                                                             |
 -----------------------------------------------------------------------------

STOP 1
STOP 1
STOP 1
STOP 1
 running on    1 total cores
 distrk:  each k-point on    1 cores,    1 groups
 distr:  one band on    1 cores,    1 groups
 running on    1 total cores
 distrk:  each k-point on    1 cores,    1 groups
 distr:  one band on    1 cores,    1 groups
 running on    1 total cores
 distrk:  each k-point on    1 cores,    1 groups
 distr:  one band on    1 cores,    1 groups
 running on    1 total cores
 distrk:  each k-point on    1 cores,    1 groups
 distr:  one band on    1 cores,    1 groups
 vasp.6.2.1 16May21 (build Dec 20 2021 17:02:34) complex                         
 vasp.6.2.1 16May21 (build Dec 20 2021 17:02:34) complex                         
 POSCAR found type information on POSCAR Na
 POSCAR found :  1 types and       2 ions
 scaLAPACK will be used
 vasp.6.2.1 16May21 (build Dec 20 2021 17:02:34) complex                         
 POSCAR found type information on POSCAR Na
 POSCAR found :  1 types and       2 ions
 scaLAPACK will be used
 LDA part: xc-table for Ceperly-Alder, standard interpolation
 vasp.6.2.1 16May21 (build Dec 20 2021 17:02:34) complex                         
 LDA part: xc-table for Ceperly-Alder, standard interpolation
 POSCAR found type information on POSCAR Na
 POSCAR found :  1 types and       2 ions
 scaLAPACK will be used
 found WAVECAR, reading the header
  number of k-points has changed, file:    10 present:    84
  trying to continue reading WAVECAR, but it might fail
 WAVECAR: different cutoff or change in lattice found
 POSCAR found type information on POSCAR Na
 POSCAR found :  1 types and       2 ions
 scaLAPACK will be used
 LDA part: xc-table for Ceperly-Alder, standard interpolation
 LDA part: xc-table for Ceperly-Alder, standard interpolation
 POSCAR, INCAR and KPOINTS ok, starting setup
 found WAVECAR, reading the header
  number of k-points has changed, file:    10 present:    84
  trying to continue reading WAVECAR, but it might fail
 WAVECAR: different cutoff or change in lattice found
 FFT: planning ...
 reading WAVECAR
 -----------------------------------------------------------------------------
|                                                                             |
|     EEEEEEE  RRRRRR   RRRRRR   OOOOOOO  RRRRRR      ###     ###     ###     |
|     E        R     R  R     R  O     O  R     R     ###     ###     ###     |
|     E        R     R  R     R  O     O  R     R     ###     ###     ###     |
|     EEEEE    RRRRRR   RRRRRR   O     O  RRRRRR       #       #       #      |
|     E        R   R    R   R    O     O  R   R                               |
|     E        R    R   R    R   O     O  R    R      ###     ###     ###     |
|     EEEEEEE  R     R  R     R  OOOOOOO  R     R     ###     ###     ###     |
|                                                                             |
|     ERROR: while reading WAVECAR, plane wave coefficients changed 179       |
|     925                                                                     |
|                                                                             |
|       ---->  I REFUSE TO CONTINUE WITH THIS SICK JOB ... BYE!!! <----       |
|                                                                             |
 -----------------------------------------------------------------------------

 found WAVECAR, reading the header
  number of k-points has changed, file:    10 present:    84
  trying to continue reading WAVECAR, but it might fail
 WAVECAR: different cutoff or change in lattice found
 found WAVECAR, reading the header
  number of k-points has changed, file:    10 present:    84
  trying to continue reading WAVECAR, but it might fail
 WAVECAR: different cutoff or change in lattice found
STOP 1
 POSCAR, INCAR and KPOINTS ok, starting setup
 FFT: planning ...
 reading WAVECAR
 -----------------------------------------------------------------------------
|                                                                             |
|     EEEEEEE  RRRRRR   RRRRRR   OOOOOOO  RRRRRR      ###     ###     ###     |
|     E        R     R  R     R  O     O  R     R     ###     ###     ###     |
|     E        R     R  R     R  O     O  R     R     ###     ###     ###     |
|     EEEEE    RRRRRR   RRRRRR   O     O  RRRRRR       #       #       #      |
|     E        R   R    R   R    O     O  R   R                               |
|     E        R    R   R    R   O     O  R    R      ###     ###     ###     |
|     EEEEEEE  R     R  R     R  OOOOOOO  R     R     ###     ###     ###     |
|                                                                             |
|     ERROR: while reading WAVECAR, plane wave coefficients changed 179       |
|     925                                                                     |
|                                                                             |
|       ---->  I REFUSE TO CONTINUE WITH THIS SICK JOB ... BYE!!! <----       |
|                                                                             |
 -----------------------------------------------------------------------------

 POSCAR, INCAR and KPOINTS ok, starting setup
 FFT: planning ...
 reading WAVECAR
 -----------------------------------------------------------------------------
|                                                                             |
|     EEEEEEE  RRRRRR   RRRRRR   OOOOOOO  RRRRRR      ###     ###     ###     |
|     E        R     R  R     R  O     O  R     R     ###     ###     ###     |
|     E        R     R  R     R  O     O  R     R     ###     ###     ###     |
|     EEEEE    RRRRRR   RRRRRR   O     O  RRRRRR       #       #       #      |
|     E        R   R    R   R    O     O  R   R                               |
|     E        R    R   R    R   O     O  R    R      ###     ###     ###     |
|     EEEEEEE  R     R  R     R  OOOOOOO  R     R     ###     ###     ###     |
|                                                                             |
|     ERROR: while reading WAVECAR, plane wave coefficients changed 179       |
|     925                                                                     |
|                                                                             |
|       ---->  I REFUSE TO CONTINUE WITH THIS SICK JOB ... BYE!!! <----       |
|                                                                             |
 -----------------------------------------------------------------------------

 POSCAR, INCAR and KPOINTS ok, starting setup
 FFT: planning ...
 reading WAVECAR
 -----------------------------------------------------------------------------
|                                                                             |
|     EEEEEEE  RRRRRR   RRRRRR   OOOOOOO  RRRRRR      ###     ###     ###     |
|     E        R     R  R     R  O     O  R     R     ###     ###     ###     |
|     E        R     R  R     R  O     O  R     R     ###     ###     ###     |
|     EEEEE    RRRRRR   RRRRRR   O     O  RRRRRR       #       #       #      |
|     E        R   R    R   R    O     O  R   R                               |
|     E        R    R   R    R   O     O  R    R      ###     ###     ###     |
|     EEEEEEE  R     R  R     R  OOOOOOO  R     R     ###     ###     ###     |
|                                                                             |
|     ERROR: while reading WAVECAR, plane wave coefficients changed 179       |
|     925                                                                     |
|                                                                             |
|       ---->  I REFUSE TO CONTINUE WITH THIS SICK JOB ... BYE!!! <----       |
|                                                                             |
 -----------------------------------------------------------------------------

STOP 1
STOP 1
STOP 1
 running on    1 total cores
 distrk:  each k-point on    1 cores,    1 groups
 distr:  one band on    1 cores,    1 groups
 running on    1 total cores
 distrk:  each k-point on    1 cores,    1 groups
 distr:  one band on    1 cores,    1 groups
 running on    1 total cores
 distrk:  each k-point on    1 cores,    1 groups
 distr:  one band on    1 cores,    1 groups
 running on    1 total cores
 distrk:  each k-point on    1 cores,    1 groups
 distr:  one band on    1 cores,    1 groups
 vasp.6.2.1 16May21 (build Dec 20 2021 17:02:34) complex                         
 vasp.6.2.1 16May21 (build Dec 20 2021 17:02:34) complex                         
 POSCAR found type information on POSCAR Na
 POSCAR found :  1 types and       2 ions
 scaLAPACK will be used
 vasp.6.2.1 16May21 (build Dec 20 2021 17:02:34) complex                         
 POSCAR found type information on POSCAR Na
 POSCAR found :  1 types and       2 ions
 scaLAPACK will be used
 LDA part: xc-table for Ceperly-Alder, standard interpolation
 vasp.6.2.1 16May21 (build Dec 20 2021 17:02:34) complex                         
 LDA part: xc-table for Ceperly-Alder, standard interpolation
 POSCAR found type information on POSCAR Na
 POSCAR found :  1 types and       2 ions
 scaLAPACK will be used
 POSCAR found type information on POSCAR Na
 found WAVECAR, reading the header
  number of k-points has changed, file:    10 present:     4
  trying to continue reading WAVECAR, but it might fail
 WAVECAR: different cutoff or change in lattice found
 POSCAR found :  1 types and       2 ions
 scaLAPACK will be used
 LDA part: xc-table for Ceperly-Alder, standard interpolation
 LDA part: xc-table for Ceperly-Alder, standard interpolation
 found WAVECAR, reading the header
  number of k-points has changed, file:    10 present:     4
  trying to continue reading WAVECAR, but it might fail
 WAVECAR: different cutoff or change in lattice found
 found WAVECAR, reading the header
  number of k-points has changed, file:    10 present:     4
  trying to continue reading WAVECAR, but it might fail
 WAVECAR: different cutoff or change in lattice found
 POSCAR, INCAR and KPOINTS ok, starting setup
 found WAVECAR, reading the header
  number of k-points has changed, file:    10 present:     4
  trying to continue reading WAVECAR, but it might fail
 WAVECAR: different cutoff or change in lattice found
 FFT: planning ...
 reading WAVECAR
 the WAVECAR file was read successfully
 initial charge from wavefunction
 entering main loop
       N       E                     dE             d eps       ncg     rms          rms(c)
 POSCAR, INCAR and KPOINTS ok, starting setup
 FFT: planning ...
 reading WAVECAR
 the WAVECAR file was read successfully
 initial charge from wavefunction
 entering main loop
       N       E                     dE             d eps       ncg     rms          rms(c)
DAV:   1    -0.275054178998E+01   -0.27505E+01   -0.23102E+00    50   0.527E+00BRMIX: very serious problems
 the old and the new charge density differ
 old charge density:     2.91631 new    2.00000
    0.106E+00
DAV:   2    -0.299988412085E+01   -0.24934E+00   -0.15242E-02    45   0.685E-01    0.174E-01
DAV:   3    -0.299752036593E+01    0.23638E-02   -0.48084E-04    40   0.123E-01    0.642E-02
DAV:   4    -0.299703552635E+01    0.48484E-03   -0.21111E-05    25   0.219E-02    0.415E-03
DAV:   5    -0.299703129924E+01    0.42271E-05   -0.19699E-06    20   0.809E-03
   1 F= -.29970313E+01 E0= -.29981768E+01  d E =-.299703E+01
 BRION: g(F)=  0.345E-54 g(S)=  0.294E-01
 POSCAR, INCAR and KPOINTS ok, starting setup
 FFT: planning ...
 reading WAVECAR
 the WAVECAR file was read successfully
 initial charge from wavefunction
 entering main loop
DAV:   1    -0.275054178998E+01   -0.27505E+01   -0.23102E+00    50   0.527E+00BRMIX: very serious problems
 the old and the new charge density differ
 old charge density:     2.91631 new    2.00000
    0.106E+00
DAV:   2    -0.299988412085E+01   -0.24934E+00   -0.15242E-02    45   0.685E-01    0.174E-01
DAV:   3    -0.299752036593E+01    0.23638E-02   -0.48084E-04    40   0.123E-01    0.642E-02
DAV:   4    -0.299703552635E+01    0.48484E-03   -0.21111E-05    25   0.219E-02    0.415E-03
DAV:   5    -0.299703129924E+01    0.42271E-05   -0.19699E-06    20   0.809E-03
 POSCAR, INCAR and KPOINTS ok, starting setup
 FFT: planning ...
 reading WAVECAR
 the WAVECAR file was read successfully
 initial charge from wavefunction
 entering main loop
       N       E                     dE             d eps       ncg     rms          rms(c)
   1 F= -.29970313E+01 E0= -.29981768E+01  d E =-.299703E+01
 BRION: g(F)=  0.345E-54 g(S)=  0.294E-01
       N       E                     dE             d eps       ncg     rms          rms(c)
DAV:   1    -0.275054178998E+01   -0.27505E+01   -0.23102E+00    50   0.527E+00BRMIX: very serious problems
 the old and the new charge density differ
 old charge density:     2.91631 new    2.00000
    0.106E+00
DAV:   2    -0.299988412085E+01   -0.24934E+00   -0.15242E-02    45   0.685E-01    0.174E-01
DAV:   3    -0.299752036593E+01    0.23638E-02   -0.48084E-04    40   0.123E-01    0.642E-02
DAV:   4    -0.299703552635E+01    0.48484E-03   -0.21111E-05    25   0.219E-02    0.415E-03
DAV:   5    -0.299703129924E+01    0.42271E-05   -0.19699E-06    20   0.809E-03
   1 F= -.29970313E+01 E0= -.29981768E+01  d E =-.299703E+01
 BRION: g(F)=  0.345E-54 g(S)=  0.294E-01
DAV:   1    -0.275054178998E+01   -0.27505E+01   -0.23102E+00    50   0.527E+00BRMIX: very serious problems
 the old and the new charge density differ
 old charge density:     2.91631 new    2.00000
    0.106E+00
DAV:   2    -0.299988412085E+01   -0.24934E+00   -0.15242E-02    45   0.685E-01    0.174E-01
DAV:   3    -0.299752036593E+01    0.23638E-02   -0.48084E-04    40   0.123E-01    0.642E-02
DAV:   4    -0.299703552635E+01    0.48484E-03   -0.21111E-05    25   0.219E-02    0.415E-03
DAV:   5    -0.299703129924E+01    0.42271E-05   -0.19699E-06    20   0.809E-03
   1 F= -.29970313E+01 E0= -.29981768E+01  d E =-.299703E+01
 BRION: g(F)=  0.345E-54 g(S)=  0.294E-01
 bond charge predicted
       N       E                     dE             d eps       ncg     rms          rms(c)
DAV:   1    -0.302354134793E+01   -0.26506E-01   -0.21618E-02    40   0.771E-01    0.273E-02
DAV:   2    -0.302356232998E+01   -0.20982E-04   -0.24312E-04    45   0.996E-02
   2 F= -.30235623E+01 E0= -.30247077E+01  d E =-.265310E-01
 BRION: g(F)=  0.252E-53 g(S)=  0.184E-01 retain N=  1 mean eig= 4.52
 eig:   4.515
 bond charge predicted
       N       E                     dE             d eps       ncg     rms          rms(c)
DAV:   1    -0.302354134793E+01   -0.26506E-01   -0.21618E-02    40   0.771E-01    0.273E-02
DAV:   2    -0.302356232998E+01   -0.20982E-04   -0.24312E-04    45   0.996E-02
   2 F= -.30235623E+01 E0= -.30247077E+01  d E =-.265310E-01
 BRION: g(F)=  0.252E-53 g(S)=  0.184E-01 retain N=  1 mean eig= 4.52
 eig:   4.515
 bond charge predicted
 bond charge predicted
 bond charge predicted
       N       E                     dE             d eps       ncg     rms          rms(c)
DAV:   1    -0.305881456684E+01   -0.35273E-01   -0.30916E-01    40   0.311E+00    0.105E-01
DAV:   2    -0.305903088458E+01   -0.21632E-03   -0.32239E-03    45   0.376E-01    0.637E-02
DAV:   3    -0.305897995767E+01    0.50927E-04   -0.19762E-04    35   0.727E-02
   3 F= -.30589800E+01 E0= -.30601252E+01  d E =-.354176E-01
 BRION: g(F)=  0.131E-53 g(S)=  0.873E-03 retain N=  1 mean eig= 3.74
 eig:   3.744
 bond charge predicted
 bond charge predicted
       N       E                     dE             d eps       ncg     rms          rms(c)
       N       E                     dE             d eps       ncg     rms          rms(c)
       N       E                     dE             d eps       ncg     rms          rms(c)
DAV:   1    -0.302354134793E+01   -0.26506E-01   -0.21618E-02    40   0.771E-01DAV:   1    -0.305881456684E+01   -0.35273E-01   -0.30916E-01    40   0.311E+00DAV:   1    -0.302354134793E+01   -0.26506E-01   -0.21618E-02    40   0.771E-01    0.273E-02
    0.105E-01
    0.273E-02
DAV:   2    -0.302356232998E+01   -0.20982E-04   -0.24312E-04    45   0.996E-02
DAV:   2    -0.305903088458E+01   -0.21632E-03   -0.32239E-03    45   0.376E-01DAV:   2    -0.302356232998E+01   -0.20982E-04   -0.24312E-04    45   0.996E-02
    0.637E-02
DAV:   3    -0.305897995767E+01    0.50927E-04   -0.19762E-04    35   0.727E-02
   2 F= -.30235623E+01 E0= -.30247077E+01  d E =-.265310E-01
   2 F= -.30235623E+01 E0= -.30247077E+01  d E =-.265310E-01
 BRION: g(F)=  0.252E-53 g(S)=  0.184E-01 BRION: g(F)=  0.252E-53 g(S)=  0.184E-01 retain N=  1 mean eig= 4.52
 retain N=  1 mean eig= 4.52
 eig:   4.515
 eig:   4.515
   3 F= -.30589800E+01 E0= -.30601252E+01  d E =-.354176E-01
 BRION: g(F)=  0.131E-53 g(S)=  0.873E-03 retain N=  1 mean eig= 3.74
 eig:   3.744
       N       E                     dE             d eps       ncg     rms          rms(c)
DAV:   1    -0.306054344841E+01   -0.15126E-02   -0.84970E-03    40   0.504E-01    0.194E-02
DAV:   2    -0.306054108735E+01    0.23611E-05   -0.10436E-04    30   0.669E-02
   4 F= -.30605411E+01 E0= -.30616864E+01  d E =-.156113E-02
 BRION: g(F)=  0.244E-53 g(S)=  0.353E-05 retain N=  1 mean eig= 3.52
 eig:   3.518
 reached required accuracy - stopping structural energy minimisation
 bond charge predicted
 writing wavefunctions
       N       E                     dE             d eps       ncg     rms          rms(c)
 bond charge predicted
 bond charge predicted
DAV:   1    -0.305881456684E+01   -0.35273E-01   -0.30916E-01    40   0.311E+00    0.105E-01
DAV:   2    -0.305903088458E+01   -0.21632E-03   -0.32239E-03    45   0.376E-01    0.637E-02
DAV:   3    -0.305897995767E+01    0.50927E-04   -0.19762E-04    35   0.727E-02
   3 F= -.30589800E+01 E0= -.30601252E+01  d E =-.354176E-01
 BRION: g(F)=  0.131E-53 g(S)=  0.873E-03 retain N=  1 mean eig= 3.74
 eig:   3.744
 bond charge predicted
       N       E                     dE             d eps       ncg     rms          rms(c)
       N       E                     dE             d eps       ncg     rms          rms(c)
DAV:   1    -0.306054344841E+01   -0.15126E-02   -0.84970E-03    40   0.504E-01DAV:   1    -0.305881456684E+01   -0.35273E-01   -0.30916E-01    40   0.311E+00    0.194E-02
    0.105E-01
DAV:   2    -0.306054108735E+01    0.23611E-05   -0.10436E-04    30   0.669E-02
DAV:   2    -0.305903088458E+01   -0.21632E-03   -0.32239E-03    45   0.376E-01    0.637E-02
DAV:   3    -0.305897995767E+01    0.50927E-04   -0.19762E-04    35   0.727E-02
   3 F= -.30589800E+01 E0= -.30601252E+01  d E =-.354176E-01
 BRION: g(F)=  0.131E-53 g(S)=  0.873E-03 retain N=  1 mean eig= 3.74
 eig:   3.744
   4 F= -.30605411E+01 E0= -.30616864E+01  d E =-.156113E-02
 BRION: g(F)=  0.244E-53 g(S)=  0.353E-05 retain N=  1 mean eig= 3.52
 eig:   3.518
 reached required accuracy - stopping structural energy minimisation
       N       E                     dE             d eps       ncg     rms          rms(c)
DAV:   1    -0.306054344841E+01   -0.15126E-02   -0.84970E-03    40   0.504E-01    0.194E-02
DAV:   2    -0.306054108735E+01    0.23611E-05   -0.10436E-04    30   0.669E-02
   4 F= -.30605411E+01 E0= -.30616864E+01  d E =-.156113E-02
 BRION: g(F)=  0.244E-53 g(S)=  0.353E-05 retain N=  1 mean eig= 3.52
 eig:   3.518
 reached required accuracy - stopping structural energy minimisation
 writing wavefunctions
 bond charge predicted
Note: The following floating-point exceptions are signalling: IEEE_UNDERFLOW_FLAG IEEE_DENORMAL
 writing wavefunctions
       N       E                     dE             d eps       ncg     rms          rms(c)
DAV:   1    -0.306054344841E+01   -0.15126E-02   -0.84970E-03    40   0.504E-01    0.194E-02
DAV:   2    -0.306054108735E+01    0.23611E-05   -0.10436E-04    30   0.669E-02
   4 F= -.30605411E+01 E0= -.30616864E+01  d E =-.156113E-02
 BRION: g(F)=  0.244E-53 g(S)=  0.353E-05 retain N=  1 mean eig= 3.52
 eig:   3.518
 reached required accuracy - stopping structural energy minimisation
 writing wavefunctions
Note: The following floating-point exceptions are signalling: IEEE_UNDERFLOW_FLAG IEEE_DENORMAL
Note: The following floating-point exceptions are signalling: IEEE_UNDERFLOW_FLAG IEEE_DENORMAL
Note: The following floating-point exceptions are signalling: IEEE_UNDERFLOW_FLAG IEEE_DENORMAL
 running on    1 total cores
 distrk:  each k-point on    1 cores,    1 groups
 distr:  one band on    1 cores,    1 groups
 running on    1 total cores
 distrk:  each k-point on    1 cores,    1 groups
 distr:  one band on    1 cores,    1 groups
 running on    1 total cores
 distrk:  each k-point on    1 cores,    1 groups
 distr:  one band on    1 cores,    1 groups
 running on    1 total cores
 distrk:  each k-point on    1 cores,    1 groups
 distr:  one band on    1 cores,    1 groups
 vasp.6.2.1 16May21 (build Dec 20 2021 17:02:34) complex                         
 vasp.6.2.1 16May21 (build Dec 20 2021 17:02:34) complex                         
 POSCAR found type information on POSCAR Na
 POSCAR found :  1 types and       2 ions
 scaLAPACK will be used
 vasp.6.2.1 16May21 (build Dec 20 2021 17:02:34) complex                         
 POSCAR found type information on POSCAR Na
 POSCAR found :  1 types and       2 ions
 scaLAPACK will be used
 LDA part: xc-table for Ceperly-Alder, standard interpolation
 vasp.6.2.1 16May21 (build Dec 20 2021 17:02:34) complex                         
 LDA part: xc-table for Ceperly-Alder, standard interpolation
 POSCAR found type information on POSCAR Na
 POSCAR found :  1 types and       2 ions
 scaLAPACK will be used
 found WAVECAR, reading the header
  number of k-points has changed, file:     4 present:    10
  trying to continue reading WAVECAR, but it might fail
 POSCAR found type information on POSCAR Na
 POSCAR found :  1 types and       2 ions
 scaLAPACK will be used
 LDA part: xc-table for Ceperly-Alder, standard interpolation
 LDA part: xc-table for Ceperly-Alder, standard interpolation
 found WAVECAR, reading the header
  number of k-points has changed, file:     4 present:    10
  trying to continue reading WAVECAR, but it might fail
 POSCAR, INCAR and KPOINTS ok, starting setup
 found WAVECAR, reading the header
  number of k-points has changed, file:     4 present:    10
  trying to continue reading WAVECAR, but it might fail
 FFT: planning ...
 reading WAVECAR
 the WAVECAR file was read successfully
 initial charge from wavefunction
 entering main loop
 found WAVECAR, reading the header
  number of k-points has changed, file:     4 present:    10
  trying to continue reading WAVECAR, but it might fail
       N       E                     dE             d eps       ncg     rms          rms(c)
 POSCAR, INCAR and KPOINTS ok, starting setup
 FFT: planning ...
 reading WAVECAR
 the WAVECAR file was read successfully
 initial charge from wavefunction
 entering main loop
       N       E                     dE             d eps       ncg     rms          rms(c)
DAV:   1    -0.282643327800E+01   -0.28264E+01   -0.87171E-01   155   0.439E+00    0.126E-01
DAV:   2    -0.282712325532E+01   -0.68998E-03   -0.99789E-03   105   0.503E-01    0.909E-02
DAV:   3    -0.282697779220E+01    0.14546E-03   -0.26623E-04   120   0.106E-01    0.125E-02
DAV:   4    -0.282696964977E+01    0.81424E-05   -0.39644E-06    95   0.145E-02
   1 F= -.28269696E+01 E0= -.28283417E+01  d E =-.282697E+01
 BRION: g(F)=  0.106E-54 g(S)=  0.207E-01
DAV:   1    -0.282643327800E+01   -0.28264E+01   -0.87171E-01   155   0.439E+00    0.126E-01
DAV:   2    -0.282712325532E+01   -0.68998E-03   -0.99789E-03   105   0.503E-01    0.909E-02
DAV:   3    -0.282697779220E+01    0.14546E-03   -0.26623E-04   120   0.106E-01    0.125E-02
 POSCAR, INCAR and KPOINTS ok, starting setup
 FFT: planning ...
DAV:   4    -0.282696964977E+01    0.81424E-05   -0.39644E-06    95   0.145E-02
 reading WAVECAR
 the WAVECAR file was read successfully
 initial charge from wavefunction
 entering main loop
   1 F= -.28269696E+01 E0= -.28283417E+01  d E =-.282697E+01
 BRION: g(F)=  0.106E-54 g(S)=  0.207E-01
 POSCAR, INCAR and KPOINTS ok, starting setup
 FFT: planning ...
 reading WAVECAR
 the WAVECAR file was read successfully
 initial charge from wavefunction
 entering main loop
       N       E                     dE             d eps       ncg     rms          rms(c)
       N       E                     dE             d eps       ncg     rms          rms(c)
DAV:   1    -0.282643327800E+01   -0.28264E+01   -0.87171E-01   155   0.439E+00    0.126E-01
DAV:   2    -0.282712325532E+01   -0.68998E-03   -0.99789E-03   105   0.503E-01    0.909E-02
DAV:   3    -0.282697779220E+01    0.14546E-03   -0.26623E-04   120   0.106E-01    0.125E-02
DAV:   4    -0.282696964977E+01    0.81424E-05   -0.39644E-06    95   0.145E-02
   1 F= -.28269696E+01 E0= -.28283417E+01  d E =-.282697E+01
 BRION: g(F)=  0.106E-54 g(S)=  0.207E-01
DAV:   1    -0.282643327800E+01   -0.28264E+01   -0.87171E-01   155   0.439E+00    0.126E-01
DAV:   2    -0.282712325532E+01   -0.68998E-03   -0.99789E-03   105   0.503E-01    0.909E-02
DAV:   3    -0.282697779220E+01    0.14546E-03   -0.26623E-04   120   0.106E-01    0.125E-02
DAV:   4    -0.282696964977E+01    0.81424E-05   -0.39644E-06    95   0.145E-02
   1 F= -.28269696E+01 E0= -.28283417E+01  d E =-.282697E+01
 BRION: g(F)=  0.106E-54 g(S)=  0.207E-01
 bond charge predicted
 bond charge predicted
       N       E                     dE             d eps       ncg     rms          rms(c)
DAV:   1    -0.284556438809E+01   -0.18587E-01   -0.15135E-02   105   0.640E-01    0.229E-02
DAV:   2    -0.284557727759E+01   -0.12889E-04   -0.16011E-04   105   0.795E-02
   2 F= -.28455773E+01 E0= -.28470834E+01  d E =-.186076E-01
 BRION: g(F)=  0.145E-53 g(S)=  0.129E-01 retain N=  1 mean eig= 4.53
 eig:   4.530
       N       E                     dE             d eps       ncg     rms          rms(c)
DAV:   1    -0.284556438809E+01   -0.18587E-01   -0.15135E-02   105   0.640E-01    0.229E-02
DAV:   2    -0.284557727759E+01   -0.12889E-04   -0.16011E-04   105   0.795E-02
   2 F= -.28455773E+01 E0= -.28470834E+01  d E =-.186076E-01
 BRION: g(F)=  0.145E-53 g(S)=  0.129E-01 retain N=  1 mean eig= 4.53
 eig:   4.530
 bond charge predicted
       N       E                     dE             d eps       ncg     rms          rms(c)
DAV:   1    -0.284556438809E+01   -0.18587E-01   -0.15135E-02   105   0.640E-01    0.229E-02
DAV:   2    -0.284557727759E+01   -0.12889E-04   -0.16011E-04   105   0.795E-02
 bond charge predicted
 bond charge predicted
 bond charge predicted
   2 F= -.28455773E+01 E0= -.28470834E+01  d E =-.186076E-01
 BRION: g(F)=  0.145E-53 g(S)=  0.129E-01 retain N=  1 mean eig= 4.53
 eig:   4.530
 bond charge predicted
       N       E                     dE             d eps       ncg     rms          rms(c)
       N       E                     dE             d eps       ncg     rms          rms(c)
       N       E                     dE             d eps       ncg     rms          rms(c)
       N       E                     dE             d eps       ncg     rms          rms(c)
DAV:   1    -0.287090747462E+01   -0.25343E-01   -0.21417E-01   100   0.255E+00DAV:   1    -0.287090747462E+01   -0.25343E-01   -0.21417E-01   100   0.255E+00DAV:   1    -0.284556438809E+01   -0.18587E-01   -0.15135E-02   105   0.640E-01DAV:   1    -0.287090747462E+01   -0.25343E-01   -0.21417E-01   100   0.255E+00    0.871E-02
    0.871E-02
    0.229E-02
    0.871E-02
DAV:   2    -0.284557727759E+01   -0.12889E-04   -0.16011E-04   105   0.795E-02
DAV:   2    -0.287107640477E+01   -0.16893E-03   -0.22958E-03   115   0.323E-01DAV:   2    -0.287107640477E+01   -0.16893E-03   -0.22958E-03   115   0.323E-01DAV:   2    -0.287107640477E+01   -0.16893E-03   -0.22958E-03   115   0.323E-01    0.532E-02
    0.532E-02
    0.532E-02
DAV:   3    -0.287104784969E+01    0.28555E-04   -0.13182E-04   105   0.604E-02
DAV:   3    -0.287104784969E+01    0.28555E-04   -0.13182E-04   105   0.604E-02
   2 F= -.28455773E+01 E0= -.28470834E+01  d E =-.186076E-01
 BRION: g(F)=  0.145E-53 g(S)=  0.129E-01 retain N=  1 mean eig= 4.53
 eig:   4.530
DAV:   3    -0.287104784969E+01    0.28555E-04   -0.13182E-04   105   0.604E-02
   3 F= -.28710478E+01 E0= -.28729511E+01  d E =-.254706E-01
 BRION: g(F)=  0.371E-53 g(S)=  0.434E-03 retain N=  1 mean eig= 3.86
 eig:   3.855
   3 F= -.28710478E+01 E0= -.28729511E+01  d E =-.254706E-01
 BRION: g(F)=  0.371E-53 g(S)=  0.434E-03 retain N=  1 mean eig= 3.86
 eig:   3.855
   3 F= -.28710478E+01 E0= -.28729511E+01  d E =-.254706E-01
 BRION: g(F)=  0.371E-53 g(S)=  0.434E-03 retain N=  1 mean eig= 3.86
 eig:   3.855
 bond charge predicted
 bond charge predicted
 bond charge predicted
 bond charge predicted
       N       E                     dE             d eps       ncg     rms          rms(c)
DAV:   1    -0.287187407453E+01   -0.79767E-03   -0.45284E-03   100   0.364E-01    0.143E-02
DAV:   2    -0.287187241083E+01    0.16637E-05   -0.48157E-05    75   0.496E-02
   4 F= -.28718724E+01 E0= -.28737283E+01  d E =-.824561E-03
 BRION: g(F)=  0.396E-54 g(S)=  0.846E-06 retain N=  1 mean eig= 3.69
 eig:   3.691
 reached required accuracy - stopping structural energy minimisation
 writing wavefunctions
       N       E                     dE             d eps       ncg     rms          rms(c)
       N       E                     dE             d eps       ncg     rms          rms(c)
       N       E                     dE             d eps       ncg     rms          rms(c)
DAV:   1    -0.287187407453E+01   -0.79767E-03   -0.45284E-03   100   0.364E-01DAV:   1    -0.287187407453E+01   -0.79767E-03   -0.45284E-03   100   0.364E-01DAV:   1    -0.287090747462E+01   -0.25343E-01   -0.21417E-01   100   0.255E+00    0.143E-02
    0.871E-02
    0.143E-02
DAV:   2    -0.287187241083E+01    0.16637E-05   -0.48157E-05    75   0.496E-02
DAV:   2    -0.287187241083E+01    0.16637E-05   -0.48157E-05    75   0.496E-02
DAV:   2    -0.287107640477E+01   -0.16893E-03   -0.22958E-03   115   0.323E-01    0.532E-02
   4 F= -.28718724E+01 E0= -.28737283E+01  d E =-.824561E-03
 BRION: g(F)=  0.396E-54 g(S)=  0.846E-06 retain N=  1 mean eig= 3.69
 eig:   3.691
 reached required accuracy - stopping structural energy minimisation
   4 F= -.28718724E+01 E0= -.28737283E+01  d E =-.824561E-03
 BRION: g(F)=  0.396E-54 g(S)=  0.846E-06 retain N=  1 mean eig= 3.69
 eig:   3.691
 reached required accuracy - stopping structural energy minimisation
DAV:   3    -0.287104784969E+01    0.28555E-04   -0.13182E-04   105   0.604E-02
   3 F= -.28710478E+01 E0= -.28729511E+01  d E =-.254706E-01
 BRION: g(F)=  0.371E-53 g(S)=  0.434E-03 retain N=  1 mean eig= 3.86
 eig:   3.855
 writing wavefunctions
 writing wavefunctions
 bond charge predicted
       N       E                     dE             d eps       ncg     rms          rms(c)
DAV:   1    -0.287187407453E+01   -0.79767E-03   -0.45284E-03   100   0.364E-01    0.143E-02
DAV:   2    -0.287187241083E+01    0.16637E-05   -0.48157E-05    75   0.496E-02
   4 F= -.28718724E+01 E0= -.28737283E+01  d E =-.824561E-03
 BRION: g(F)=  0.396E-54 g(S)=  0.846E-06 retain N=  1 mean eig= 3.69
 eig:   3.691
 reached required accuracy - stopping structural energy minimisation
Note: The following floating-point exceptions are signalling: IEEE_UNDERFLOW_FLAG IEEE_DENORMAL
 writing wavefunctions
Note: The following floating-point exceptions are signalling: IEEE_UNDERFLOW_FLAG IEEE_DENORMAL
Note: The following floating-point exceptions are signalling: IEEE_UNDERFLOW_FLAG IEEE_DENORMAL
Note: The following floating-point exceptions are signalling: IEEE_UNDERFLOW_FLAG IEEE_DENORMAL
 running on    1 total cores
 distrk:  each k-point on    1 cores,    1 groups
 distr:  one band on    1 cores,    1 groups
 running on    1 total cores
 distrk:  each k-point on    1 cores,    1 groups
 distr:  one band on    1 cores,    1 groups
 running on    1 total cores
 distrk:  each k-point on    1 cores,    1 groups
 distr:  one band on    1 cores,    1 groups
 running on    1 total cores
 distrk:  each k-point on    1 cores,    1 groups
 distr:  one band on    1 cores,    1 groups
 vasp.6.2.1 16May21 (build Dec 20 2021 17:02:34) complex                         
 vasp.6.2.1 16May21 (build Dec 20 2021 17:02:34) complex                         
 POSCAR found type information on POSCAR Na
 POSCAR found :  1 types and       2 ions
 scaLAPACK will be used
 vasp.6.2.1 16May21 (build Dec 20 2021 17:02:34) complex                         
 POSCAR found type information on POSCAR Na
 POSCAR found :  1 types and       2 ions
 scaLAPACK will be used
 LDA part: xc-table for Ceperly-Alder, standard interpolation
 vasp.6.2.1 16May21 (build Dec 20 2021 17:02:34) complex                         
 POSCAR found type information on POSCAR Na
 POSCAR found :  1 types and       2 ions
 scaLAPACK will be used
 LDA part: xc-table for Ceperly-Alder, standard interpolation
 POSCAR found type information on POSCAR Na
 POSCAR found :  1 types and       2 ions
 scaLAPACK will be used
 LDA part: xc-table for Ceperly-Alder, standard interpolation
 LDA part: xc-table for Ceperly-Alder, standard interpolation
 found WAVECAR, reading the header
  number of k-points has changed, file:    10 present:    20
  trying to continue reading WAVECAR, but it might fail
 found WAVECAR, reading the header
  number of k-points has changed, file:    10 present:    20
  trying to continue reading WAVECAR, but it might fail
 found WAVECAR, reading the header
  number of k-points has changed, file:    10 present:    20
  trying to continue reading WAVECAR, but it might fail
 found WAVECAR, reading the header
  number of k-points has changed, file:    10 present:    20
  trying to continue reading WAVECAR, but it might fail
 POSCAR, INCAR and KPOINTS ok, starting setup
 FFT: planning ...
 reading WAVECAR
 the WAVECAR file was read successfully
 initial charge from wavefunction
 entering main loop
       N       E                     dE             d eps       ncg     rms          rms(c)
 POSCAR, INCAR and KPOINTS ok, starting setup
 FFT: planning ...
 reading WAVECAR
 the WAVECAR file was read successfully
 initial charge from wavefunction
 entering main loop
       N       E                     dE             d eps       ncg     rms          rms(c)
DAV:   1    -0.203686408223E+01   -0.20369E+01   -0.35995E-01   245   0.170E+00BRMIX: very serious problems
 the old and the new charge density differ
 old charge density:     0.71415 new    2.00000
    0.146E+00
 POSCAR, INCAR and KPOINTS ok, starting setup
 FFT: planning ...
 reading WAVECAR
 the WAVECAR file was read successfully
 initial charge from wavefunction
 entering main loop
DAV:   2    -0.285454981914E+01   -0.81769E+00   -0.15363E-01   260   0.187E+00    0.173E-01
DAV:   3    -0.285237248911E+01    0.21773E-02   -0.53355E-04   220   0.110E-01    0.117E-01
DAV:   4    -0.285062955995E+01    0.17429E-02   -0.12504E-04   225   0.525E-02DAV:   1    -0.203686408223E+01   -0.20369E+01   -0.35995E-01   245   0.170E+00    0.111E-02
BRMIX: very serious problems
 the old and the new charge density differ
 old charge density:     0.71415 new    2.00000
    0.146E+00
DAV:   5    -0.285061365123E+01    0.15909E-04   -0.21642E-06   110   0.105E-02
 POSCAR, INCAR and KPOINTS ok, starting setup
 FFT: planning ...
DAV:   2    -0.285454981914E+01   -0.81769E+00   -0.15363E-01   260   0.187E+00    0.173E-01
 reading WAVECAR
 the WAVECAR file was read successfully
DAV:   3    -0.285237248911E+01    0.21773E-02   -0.53355E-04   220   0.110E-01    0.117E-01
       N       E                     dE             d eps       ncg     rms          rms(c)
 initial charge from wavefunction
 entering main loop
DAV:   4    -0.285062955995E+01    0.17429E-02   -0.12504E-04   225   0.525E-02    0.111E-02
DAV:   5    -0.285061365123E+01    0.15909E-04   -0.21642E-06   110   0.105E-02
   1 F= -.28506137E+01 E0= -.28510480E+01  d E =-.285061E+01
 BRION: g(F)=  0.110E-54 g(S)=  0.218E-01
DAV:   1    -0.203686408223E+01   -0.20369E+01   -0.35995E-01   245   0.170E+00BRMIX: very serious problems
 the old and the new charge density differ
 old charge density:     0.71415 new    2.00000
    0.146E+00
DAV:   2    -0.285454981914E+01   -0.81769E+00   -0.15363E-01   260   0.187E+00       N       E                     dE             d eps       ncg     rms          rms(c)
    0.173E-01
   1 F= -.28506137E+01 E0= -.28510480E+01  d E =-.285061E+01
 BRION: g(F)=  0.110E-54 g(S)=  0.218E-01
DAV:   3    -0.285237248911E+01    0.21773E-02   -0.53355E-04   220   0.110E-01    0.117E-01
DAV:   4    -0.285062955995E+01    0.17429E-02   -0.12504E-04   225   0.525E-02    0.111E-02
DAV:   5    -0.285061365123E+01    0.15909E-04   -0.21642E-06   110   0.105E-02
   1 F= -.28506137E+01 E0= -.28510480E+01  d E =-.285061E+01
 BRION: g(F)=  0.110E-54 g(S)=  0.218E-01
DAV:   1    -0.203686408223E+01   -0.20369E+01   -0.35995E-01   245   0.170E+00BRMIX: very serious problems
 the old and the new charge density differ
 old charge density:     0.71415 new    2.00000
    0.146E+00
DAV:   2    -0.285454981914E+01   -0.81769E+00   -0.15363E-01   260   0.187E+00    0.173E-01
DAV:   3    -0.285237248911E+01    0.21773E-02   -0.53355E-04   220   0.110E-01    0.117E-01
DAV:   4    -0.285062955995E+01    0.17429E-02   -0.12504E-04   225   0.525E-02    0.111E-02
DAV:   5    -0.285061365123E+01    0.15909E-04   -0.21642E-06   110   0.105E-02
   1 F= -.28506137E+01 E0= -.28510480E+01  d E =-.285061E+01
 BRION: g(F)=  0.110E-54 g(S)=  0.218E-01
 bond charge predicted
       N       E                     dE             d eps       ncg     rms          rms(c)
DAV:   1    -0.287011340606E+01   -0.19484E-01   -0.15897E-02   210   0.656E-01    0.241E-02
DAV:   2    -0.287012867394E+01   -0.15268E-04   -0.18246E-04   195   0.867E-02
   2 F= -.28701287E+01 E0= -.28705487E+01  d E =-.195150E-01
 BRION: g(F)=  0.192E-55 g(S)=  0.134E-01 retain N=  1 mean eig= 4.43
 eig:   4.425
 bond charge predicted
       N       E                     dE             d eps       ncg     rms          rms(c)
DAV:   1    -0.287011340606E+01   -0.19484E-01   -0.15897E-02   210   0.656E-01    0.241E-02
 bond charge predicted
DAV:   2    -0.287012867394E+01   -0.15268E-04   -0.18246E-04   195   0.867E-02
   2 F= -.28701287E+01 E0= -.28705487E+01  d E =-.195150E-01
 BRION: g(F)=  0.192E-55 g(S)=  0.134E-01 retain N=  1 mean eig= 4.43
 eig:   4.425
       N       E                     dE             d eps       ncg     rms          rms(c)
DAV:   1    -0.289660992822E+01   -0.26497E-01   -0.21282E-01   215   0.254E+00    0.870E-02
DAV:   2    -0.289678332513E+01   -0.17340E-03   -0.23481E-03   250   0.319E-01    0.537E-02
DAV:   3    -0.289675180088E+01    0.31524E-04   -0.70861E-05   150   0.435E-02
   3 F= -.28967518E+01 E0= -.28971140E+01  d E =-.266231E-01
 BRION: g(F)=  0.896E-54 g(S)=  0.335E-03 retain N=  1 mean eig= 3.85
 eig:   3.845
 bond charge predicted
 bond charge predicted
 bond charge predicted
 bond charge predicted
       N       E                     dE             d eps       ncg     rms          rms(c)
       N       E                     dE             d eps       ncg     rms          rms(c)
       N       E                     dE             d eps       ncg     rms          rms(c)
       N       E                     dE             d eps       ncg     rms          rms(c)
DAV:   1    -0.287011340606E+01   -0.19484E-01   -0.15897E-02   210   0.656E-01DAV:   1    -0.289739609000E+01   -0.61276E-03   -0.35328E-03   210   0.322E-01DAV:   1    -0.289660992822E+01   -0.26497E-01   -0.21282E-01   215   0.254E+00DAV:   1    -0.287011340606E+01   -0.19484E-01   -0.15897E-02   210   0.656E-01    0.241E-02
    0.125E-02
    0.870E-02
    0.241E-02
DAV:   2    -0.289739442697E+01    0.16630E-05   -0.33423E-05   120   0.425E-02
DAV:   2    -0.287012867394E+01   -0.15268E-04   -0.18246E-04   195   0.867E-02
DAV:   2    -0.287012867394E+01   -0.15268E-04   -0.18246E-04   195   0.867E-02
DAV:   2    -0.289678332513E+01   -0.17340E-03   -0.23481E-03   250   0.319E-01    0.537E-02
   4 F= -.28973944E+01 E0= -.28977646E+01  d E =-.642626E-03
 BRION: g(F)=  0.179E-53 g(S)=  0.487E-06 retain N=  1 mean eig= 3.70
 eig:   3.703
 reached required accuracy - stopping structural energy minimisation
   2 F= -.28701287E+01 E0= -.28705487E+01  d E =-.195150E-01
 BRION: g(F)=  0.192E-55 g(S)=  0.134E-01 retain N=  1 mean eig= 4.43
 eig:   4.425
   2 F= -.28701287E+01 E0= -.28705487E+01  d E =-.195150E-01
 BRION: g(F)=  0.192E-55 g(S)=  0.134E-01 retain N=  1 mean eig= 4.43
 eig:   4.425
DAV:   3    -0.289675180088E+01    0.31524E-04   -0.70861E-05   150   0.435E-02
   3 F= -.28967518E+01 E0= -.28971140E+01  d E =-.266231E-01
 BRION: g(F)=  0.896E-54 g(S)=  0.335E-03 retain N=  1 mean eig= 3.85
 eig:   3.845
 writing wavefunctions
 bond charge predicted
 bond charge predicted
 bond charge predicted
       N       E                     dE             d eps       ncg     rms          rms(c)
DAV:   1    -0.289660992822E+01   -0.26497E-01   -0.21282E-01   215   0.254E+00    0.870E-02
DAV:   2    -0.289678332513E+01   -0.17340E-03   -0.23481E-03   250   0.319E-01    0.537E-02
       N       E                     dE             d eps       ncg     rms          rms(c)
       N       E                     dE             d eps       ncg     rms          rms(c)
DAV:   3    -0.289675180088E+01    0.31524E-04   -0.70861E-05   150   0.435E-02
[...]
    0.578E-02
DAV:   2    -0.286817756436E+01   -0.44274E+00   -0.86358E-02   640   0.146E+00    0.123E-01
DAV:   3    -0.286644501800E+01    0.17325E-02   -0.17946E-03   685   0.212E-01    0.578E-02
DAV:   4    -0.286605163688E+01    0.39338E-03   -0.66650E-05   525   0.409E-02DAV:   3    -0.286644501800E+01    0.17325E-02   -0.17946E-03   685   0.212E-01    0.461E-03
    0.578E-02
DAV:   3    -0.286644501800E+01    0.17325E-02   -0.17946E-03   685   0.212E-01    0.578E-02
DAV:   5    -0.286605046258E+01    0.11743E-05   -0.18853E-06   305   0.789E-03
DAV:   4    -0.286605163688E+01    0.39338E-03   -0.66650E-05   525   0.409E-02    0.461E-03
DAV:   4    -0.286605163688E+01    0.39338E-03   -0.66650E-05   525   0.409E-02    0.461E-03
DAV:   4    -0.286605163688E+01    0.39338E-03   -0.66650E-05   525   0.409E-02    0.461E-03
DAV:   5    -0.286605046258E+01    0.11743E-05   -0.18853E-06   305   0.789E-03
   1 F= -.28660505E+01 E0= -.28668907E+01  d E =-.286605E+01
 curvature:   0.00 expect dE= 0.000E+00 dE for cont linesearch  0.000E+00
 trial: gam= 0.00000 g(F)=  0.211E-54 g(S)=  0.222E-01 ort = 0.000E+00 (trialstep = 0.100E+01)
 search vector abs. value=  0.222E-01
DAV:   5    -0.286605046258E+01    0.11743E-05   -0.18853E-06   305   0.789E-03
DAV:   5    -0.286605046258E+01    0.11743E-05   -0.18853E-06   305   0.789E-03
   1 F= -.28660505E+01 E0= -.28668907E+01  d E =-.286605E+01
 curvature:   0.00 expect dE= 0.000E+00 dE for cont linesearch  0.000E+00
 trial: gam= 0.00000 g(F)=  0.350E-54 g(S)=  0.222E-01 ort = 0.000E+00 (trialstep = 0.100E+01)
 search vector abs. value=  0.222E-01
   1 F= -.28660505E+01 E0= -.28668907E+01  d E =-.286605E+01
 curvature:   0.00 expect dE= 0.000E+00 dE for cont linesearch  0.000E+00
 trial: gam= 0.00000 g(F)=  0.188E-54 g(S)=  0.222E-01 ort = 0.000E+00 (trialstep = 0.100E+01)
 search vector abs. value=  0.222E-01
   1 F= -.28660505E+01 E0= -.28668907E+01  d E =-.286605E+01
 curvature:   0.00 expect dE= 0.000E+00 dE for cont linesearch  0.000E+00
 trial: gam= 0.00000 g(F)=  0.817E-54 g(S)=  0.222E-01 ort = 0.000E+00 (trialstep = 0.100E+01)
 search vector abs. value=  0.222E-01
 bond charge predicted
       N       E                     dE             d eps       ncg     rms          rms(c)
 bond charge predicted
       N       E                     dE             d eps       ncg     rms          rms(c)
DAV:   1    -0.288592385729E+01   -0.19872E-01   -0.16386E-02   640   0.705E-01    0.244E-02
DAV:   1    -0.288592385729E+01   -0.19872E-01   -0.16386E-02   640   0.705E-01DAV:   2    -0.288593815146E+01   -0.14294E-04   -0.18910E-04   635   0.839E-02
    0.244E-02
 bond charge predicted
 bond charge predicted
       N       E                     dE             d eps       ncg     rms          rms(c)
   2 F= -.28859382E+01 E0= -.28867557E+01  d E =-.198877E-01
 ZBRENT: can't locate minimum, use default step
 trial-energy change:   -0.019888  1 .order   -0.019850   -0.022239   -0.017461
 step:   4.0000(harm=  4.6542)  dis= 0.00000  next Energy=    -2.917802 (dE=-0.518E-01)
DAV:   2    -0.288593815146E+01   -0.14294E-04   -0.18910E-04   635   0.839E-02
       N       E                     dE             d eps       ncg     rms          rms(c)
 bond charge predicted
DAV:   1    -0.288592385729E+01   -0.19872E-01   -0.16386E-02   640   0.705E-01   2 F= -.28859382E+01 E0= -.28867557E+01  d E =-.198877E-01
 ZBRENT: can't locate minimum, use default step
 trial-energy change:   -0.019888  1 .order   -0.019850   -0.022239   -0.017461
 step:   4.0000(harm=  4.6542)  dis= 0.00000  next Energy=    -2.917802 (dE=-0.518E-01)
       N       E                     dE             d eps       ncg     rms          rms(c)
    0.244E-02
DAV:   1    -0.288592385729E+01   -0.19872E-01   -0.16386E-02   640   0.705E-01 bond charge predicted
    0.244E-02
DAV:   1    -0.291362370073E+01   -0.27700E-01   -0.16659E-01   625   0.236E+00DAV:   2    -0.288593815147E+01   -0.14294E-04   -0.18910E-04   635   0.839E-02
       N       E                     dE             d eps       ncg     rms          rms(c)
    0.777E-02
DAV:   2    -0.288593815146E+01   -0.14294E-04   -0.18910E-04   635   0.839E-02
   2 F= -.28859382E+01 E0= -.28867557E+01  d E =-.198877E-01
 ZBRENT: can't locate minimum, use default step
 trial-energy change:   -0.019888  1 .order   -0.019850   -0.022239   -0.017461
 step:   4.0000(harm=  4.6542)  dis= 0.00000  next Energy=    -2.917802 (dE=-0.518E-01)
DAV:   1    -0.291362370073E+01   -0.27700E-01   -0.16659E-01   625   0.236E+00DAV:   2    -0.291373889924E+01   -0.11520E-03   -0.17169E-03   700   0.263E-01    0.777E-02
    0.475E-02
 bond charge predicted
   2 F= -.28859382E+01 E0= -.28867557E+01  d E =-.198877E-01
 ZBRENT: can't locate minimum, use default step
 trial-energy change:   -0.019888  1 .order   -0.019850   -0.022239   -0.017461
 step:   4.0000(harm=  4.6542)  dis= 0.00000  next Energy=    -2.917802 (dE=-0.518E-01)
       N       E                     dE             d eps       ncg     rms          rms(c)
DAV:   3    -0.291371288394E+01    0.26015E-04   -0.55355E-05   425   0.418E-02
 bond charge predicted
DAV:   2    -0.291373889924E+01   -0.11520E-03   -0.17169E-03   700   0.263E-01    0.475E-02
       N       E                     dE             d eps       ncg     rms          rms(c)
DAV:   1    -0.291362370073E+01   -0.27700E-01   -0.16659E-01   625   0.236E+00   3 F= -.29137129E+01 E0= -.29144471E+01  d E =-.476624E-01
 curvature:  -2.25 expect dE=-0.244E-06 dE for cont linesearch -0.244E-06
 trial: gam=-0.00220 g(F)=  0.130E-53 g(S)=  0.108E-06 ort = 0.490E-04 (trialstep = 0.160E+01)
 search vector abs. value=  0.101E-09
 reached required accuracy - stopping structural energy minimisation
    0.777E-02
DAV:   3    -0.291371288394E+01    0.26015E-04   -0.55355E-05   425   0.418E-02
 writing wavefunctions
DAV:   1    -0.291362370073E+01   -0.27700E-01   -0.16659E-01   625   0.236E+00    0.777E-02
   3 F= -.29137129E+01 E0= -.29144471E+01  d E =-.476624E-01
 curvature:  -2.25 expect dE=-0.244E-06 dE for cont linesearch -0.244E-06
 trial: gam=-0.00220 g(F)=  0.528E-54 g(S)=  0.108E-06 ort = 0.490E-04 (trialstep = 0.160E+01)
 search vector abs. value=  0.101E-09
 reached required accuracy - stopping structural energy minimisation
DAV:   2    -0.291373889924E+01   -0.11520E-03   -0.17169E-03   700   0.263E-01    0.475E-02
 writing wavefunctions
DAV:   2    -0.291373889924E+01   -0.11520E-03   -0.17169E-03   700   0.263E-01DAV:   3    -0.291371288394E+01    0.26015E-04   -0.55355E-05   425   0.418E-02
    0.475E-02
DAV:   3    -0.291371288394E+01    0.26015E-04   -0.55355E-05   425   0.418E-02
   3 F= -.29137129E+01 E0= -.29144471E+01  d E =-.476624E-01
 curvature:  -2.25 expect dE=-0.244E-06 dE for cont linesearch -0.244E-06
 trial: gam=-0.00220 g(F)=  0.111E-53 g(S)=  0.108E-06 ort = 0.490E-04 (trialstep = 0.160E+01)
 search vector abs. value=  0.101E-09
 reached required accuracy - stopping structural energy minimisation
 writing wavefunctions
   3 F= -.29137129E+01 E0= -.29144471E+01  d E =-.476624E-01
 curvature:  -2.25 expect dE=-0.244E-06 dE for cont linesearch -0.244E-06
 trial: gam=-0.00220 g(F)=  0.124E-55 g(S)=  0.108E-06 ort = 0.490E-04 (trialstep = 0.160E+01)
 search vector abs. value=  0.101E-09
 reached required accuracy - stopping structural energy minimisation
Note: The following floating-point exceptions are signalling: IEEE_UNDERFLOW_FLAG IEEE_DENORMAL
 writing wavefunctions
Note: The following floating-point exceptions are signalling: IEEE_UNDERFLOW_FLAG IEEE_DENORMAL
Note: The following floating-point exceptions are signalling: IEEE_UNDERFLOW_FLAG IEEE_DENORMAL
Note: The following floating-point exceptions are signalling: IEEE_UNDERFLOW_FLAG IEEE_DENORMAL
 running on    1 total cores
 distrk:  each k-point on    1 cores,    1 groups
 distr:  one band on    1 cores,    1 groups
 running on    1 total cores
 distrk:  each k-point on    1 cores,    1 groups
 distr:  one band on    1 cores,    1 groups
 running on    1 total cores
 distrk:  each k-point on    1 cores,    1 groups
 distr:  one band on    1 cores,    1 groups
 running on    1 total cores
 distrk:  each k-point on    1 cores,    1 groups
 distr:  one band on    1 cores,    1 groups
 vasp.6.2.1 16May21 (build Dec 20 2021 17:02:34) complex                         
 vasp.6.2.1 16May21 (build Dec 20 2021 17:02:34) complex                         
 POSCAR found type information on POSCAR Na
 POSCAR found :  1 types and       2 ions
 scaLAPACK will be used
 vasp.6.2.1 16May21 (build Dec 20 2021 17:02:34) complex                         
 POSCAR found type information on POSCAR Na
 POSCAR found :  1 types and       2 ions
 scaLAPACK will be used
 LDA part: xc-table for Ceperly-Alder, standard interpolation
 vasp.6.2.1 16May21 (build Dec 20 2021 17:02:34) complex                         
 LDA part: xc-table for Ceperly-Alder, standard interpolation
 POSCAR found type information on POSCAR Na
 POSCAR found :  1 types and       2 ions
 scaLAPACK will be used
 POSCAR found type information on POSCAR Na
 POSCAR found :  1 types and       2 ions
 scaLAPACK will be used
 LDA part: xc-table for Ceperly-Alder, standard interpolation
 LDA part: xc-table for Ceperly-Alder, standard interpolation
 found WAVECAR, reading the header
  number of k-points has changed, file:    56 present:    84
  trying to continue reading WAVECAR, but it might fail
 found WAVECAR, reading the header
  number of k-points has changed, file:    56 present:    84
  trying to continue reading WAVECAR, but it might fail
 POSCAR, INCAR and KPOINTS ok, starting setup
 found WAVECAR, reading the header
  number of k-points has changed, file:    56 present:    84
  trying to continue reading WAVECAR, but it might fail
 FFT: planning ...
 found WAVECAR, reading the header
  number of k-points has changed, file:    56 present:    84
  trying to continue reading WAVECAR, but it might fail
 reading WAVECAR
 the WAVECAR file was read successfully
 POSCAR, INCAR and KPOINTS ok, starting setup
 initial charge from wavefunction
 FFT: planning ...
 reading WAVECAR
 the WAVECAR file was read successfully
 entering main loop
 initial charge from wavefunction
       N       E                     dE             d eps       ncg     rms          rms(c)
 entering main loop
       N       E                     dE             d eps       ncg     rms          rms(c)
 POSCAR, INCAR and KPOINTS ok, starting setup
 FFT: planning ...
 reading WAVECAR
 the WAVECAR file was read successfully
 initial charge from wavefunction
 entering main loop
 POSCAR, INCAR and KPOINTS ok, starting setup
 FFT: planning ...
       N       E                     dE             d eps       ncg     rms          rms(c)
 reading WAVECAR
 the WAVECAR file was read successfully
 initial charge from wavefunction
 entering main loop
       N       E                     dE             d eps       ncg     rms          rms(c)
DAV:   1    -0.253711537516E+01   -0.25371E+01   -0.45841E-01  1095   0.235E+00BRMIX: very serious problems
 the old and the new charge density differ
 old charge density:     1.11995 new    2.00000
    0.100E+00
DAV:   1    -0.253711537516E+01   -0.25371E+01   -0.45841E-01  1095   0.235E+00BRMIX: very serious problems
 the old and the new charge density differ
 old charge density:     1.11995 new    2.00000
    0.100E+00
DAV:   1    -0.253711537516E+01   -0.25371E+01   -0.45841E-01  1095   0.235E+00BRMIX: very serious problems
 the old and the new charge density differ
 old charge density:     1.11995 new    2.00000
    0.100E+00
DAV:   1    -0.253711537516E+01   -0.25371E+01   -0.45841E-01  1095   0.235E+00BRMIX: very serious problems
 the old and the new charge density differ
 old charge density:     1.11995 new    2.00000
    0.100E+00
DAV:   2    -0.286275830588E+01   -0.32564E+00   -0.80033E-02  1055   0.140E+00    0.109E-01
DAV:   2    -0.286275830588E+01   -0.32564E+00   -0.80033E-02  1055   0.140E+00    0.109E-01
DAV:   2    -0.286275830587E+01   -0.32564E+00   -0.80033E-02  1055   0.140E+00    0.109E-01
DAV:   2    -0.286275830587E+01   -0.32564E+00   -0.80033E-02  1055   0.140E+00    0.109E-01
DAV:   3    -0.286145577889E+01    0.13025E-02   -0.10480E-03  1025   0.166E-01    0.505E-02
DAV:   3    -0.286145577889E+01    0.13025E-02   -0.10480E-03  1025   0.166E-01    0.505E-02
DAV:   3    -0.286145577890E+01    0.13025E-02   -0.10480E-03  1025   0.166E-01    0.505E-02
DAV:   3    -0.286145577890E+01    0.13025E-02   -0.10480E-03  1025   0.166E-01DAV:   4    -0.286115391851E+01    0.30186E-03   -0.60297E-05   775   0.382E-02    0.505E-02
    0.515E-03
DAV:   4    -0.286115391851E+01    0.30186E-03   -0.60297E-05   775   0.382E-02    0.515E-03
DAV:   4    -0.286115391851E+01    0.30186E-03   -0.60297E-05   775   0.382E-02    0.515E-03
DAV:   5    -0.286114782966E+01    0.60888E-05   -0.32988E-06   450   0.110E-02
DAV:   4    -0.286115391851E+01    0.30186E-03   -0.60297E-05   775   0.382E-02    0.515E-03
DAV:   5    -0.286114782966E+01    0.60888E-05   -0.32988E-06   450   0.110E-02
DAV:   5    -0.286114782966E+01    0.60888E-05   -0.32988E-06   450   0.110E-02
   1 F= -.28611478E+01 E0= -.28608352E+01  d E =-.286115E+01
 curvature:   0.00 expect dE= 0.000E+00 dE for cont linesearch  0.000E+00
 trial: gam= 0.00000 g(F)=  0.126E-54 g(S)=  0.217E-01 ort = 0.000E+00 (trialstep = 0.100E+01)
 search vector abs. value=  0.217E-01
DAV:   5    -0.286114782966E+01    0.60888E-05   -0.32988E-06   450   0.110E-02
   1 F= -.28611478E+01 E0= -.28608352E+01  d E =-.286115E+01
 curvature:   0.00 expect dE= 0.000E+00 dE for cont linesearch  0.000E+00
 trial: gam= 0.00000 g(F)=  0.126E-54 g(S)=  0.217E-01 ort = 0.000E+00 (trialstep = 0.100E+01)
 search vector abs. value=  0.217E-01
   1 F= -.28611478E+01 E0= -.28608352E+01  d E =-.286115E+01
 curvature:   0.00 expect dE= 0.000E+00 dE for cont linesearch  0.000E+00
 trial: gam= 0.00000 g(F)=  0.679E-54 g(S)=  0.217E-01 ort = 0.000E+00 (trialstep = 0.100E+01)
 search vector abs. value=  0.217E-01
   1 F= -.28611478E+01 E0= -.28608352E+01  d E =-.286115E+01
 curvature:   0.00 expect dE= 0.000E+00 dE for cont linesearch  0.000E+00
 trial: gam= 0.00000 g(F)=  0.873E-56 g(S)=  0.217E-01 ort = 0.000E+00 (trialstep = 0.100E+01)
 search vector abs. value=  0.217E-01
 bond charge predicted
       N       E                     dE             d eps       ncg     rms          rms(c)
DAV:   1    -0.288059947947E+01   -0.19446E-01   -0.16148E-02   950   0.700E-01    0.242E-02
 bond charge predicted
 bond charge predicted
       N       E                     dE             d eps       ncg     rms          rms(c)
 bond charge predicted
DAV:   2    -0.288061312074E+01   -0.13641E-04   -0.18167E-04   975   0.826E-02
       N       E                     dE             d eps       ncg     rms          rms(c)
       N       E                     dE             d eps       ncg     rms          rms(c)
DAV:   1    -0.288059947947E+01   -0.19446E-01   -0.16148E-02   950   0.700E-01    0.242E-02
DAV:   1    -0.288059947947E+01   -0.19446E-01   -0.16148E-02   950   0.700E-01   2 F= -.28806131E+01 E0= -.28803101E+01  d E =-.194653E-01
 ZBRENT: can't locate minimum, use default step
 trial-energy change:   -0.019465  1 .order   -0.019377   -0.021656   -0.017098
 step:   4.0000(harm=  4.7515)  dis= 0.00000  next Energy=    -2.912597 (dE=-0.514E-01)
    0.242E-02
DAV:   1    -0.288059947947E+01   -0.19446E-01   -0.16148E-02   950   0.700E-01    0.242E-02
 bond charge predicted
DAV:   2    -0.288061312074E+01   -0.13641E-04   -0.18167E-04   975   0.826E-02
DAV:   2    -0.288061312074E+01   -0.13641E-04   -0.18167E-04   975   0.826E-02
       N       E                     dE             d eps       ncg     rms          rms(c)
DAV:   2    -0.288061312074E+01   -0.13641E-04   -0.18167E-04   975   0.826E-02
   2 F= -.28806131E+01 E0= -.28803101E+01  d E =-.194653E-01
 ZBRENT: can't locate minimum, use default step
 trial-energy change:   -0.019465  1 .order   -0.019377   -0.021656   -0.017098
 step:   4.0000(harm=  4.7515)  dis= 0.00000  next Energy=    -2.912597 (dE=-0.514E-01)
   2 F= -.28806131E+01 E0= -.28803101E+01  d E =-.194653E-01
 ZBRENT: can't locate minimum, use default step
 trial-energy change:   -0.019465  1 .order   -0.019377   -0.021656   -0.017098
 step:   4.0000(harm=  4.7515)  dis= 0.00000  next Energy=    -2.912597 (dE=-0.514E-01)
   2 F= -.28806131E+01 E0= -.28803101E+01  d E =-.194653E-01
 ZBRENT: can't locate minimum, use default step
 trial-energy change:   -0.019465  1 .order   -0.019377   -0.021656   -0.017098
 step:   4.0000(harm=  4.7515)  dis= 0.00000  next Energy=    -2.912597 (dE=-0.514E-01)
DAV:   1    -0.290791658821E+01   -0.27317E-01   -0.16191E-01   930   0.232E+00    0.766E-02
 bond charge predicted
       N       E                     dE             d eps       ncg     rms          rms(c)
 bond charge predicted
 bond charge predicted
DAV:   2    -0.290803101243E+01   -0.11442E-03   -0.16869E-03  1060   0.263E-01    0.468E-02
       N       E                     dE             d eps       ncg     rms          rms(c)
       N       E                     dE             d eps       ncg     rms          rms(c)
DAV:   1    -0.290791658821E+01   -0.27317E-01   -0.16191E-01   930   0.232E+00    0.766E-02
DAV:   3    -0.290800586014E+01    0.25152E-04   -0.52930E-05   650   0.408E-02
DAV:   1    -0.290791658821E+01   -0.27317E-01   -0.16191E-01   930   0.232E+00DAV:   1    -0.290791658820E+01   -0.27317E-01   -0.16191E-01   930   0.232E+00    0.766E-02
    0.766E-02
   3 F= -.29080059E+01 E0= -.29077321E+01  d E =-.468580E-01
 curvature:  -2.28 expect dE=-0.394E-05 dE for cont linesearch -0.394E-05
 trial: gam=-0.00886 g(F)=  0.149E-53 g(S)=  0.173E-05 ort = 0.194E-03 (trialstep = 0.160E+01)
 search vector abs. value=  0.238E-09
 reached required accuracy - stopping structural energy minimisation
DAV:   2    -0.290803101243E+01   -0.11442E-03   -0.16869E-03  1060   0.263E-01    0.468E-02
 writing wavefunctions
DAV:   2    -0.290803101243E+01   -0.11442E-03   -0.16869E-03  1060   0.263E-01DAV:   2    -0.290803101243E+01   -0.11442E-03   -0.16869E-03  1060   0.263E-01    0.468E-02
    0.468E-02
DAV:   3    -0.290800586014E+01    0.25152E-04   -0.52930E-05   650   0.408E-02
DAV:   3    -0.290800586014E+01    0.25152E-04   -0.52930E-05   650   0.408E-02
DAV:   3    -0.290800586014E+01    0.25152E-04   -0.52930E-05   650   0.408E-02
   3 F= -.29080059E+01 E0= -.29077321E+01  d E =-.468580E-01
 curvature:  -2.28 expect dE=-0.394E-05 dE for cont linesearch -0.394E-05
 trial: gam=-0.00886 g(F)=  0.149E-53 g(S)=  0.173E-05 ort = 0.194E-03 (trialstep = 0.160E+01)
 search vector abs. value=  0.238E-09
 reached required accuracy - stopping structural energy minimisation
 writing wavefunctions
   3 F= -.29080059E+01 E0= -.29077321E+01  d E =-.468580E-01
 curvature:  -2.28 expect dE=-0.394E-05 dE for cont linesearch -0.394E-05
 trial: gam=-0.00886 g(F)=  0.136E-53 g(S)=  0.173E-05 ort = 0.194E-03 (trialstep = 0.160E+01)
 search vector abs. value=  0.238E-09
 reached required accuracy - stopping structural energy minimisation
   3 F= -.29080059E+01 E0= -.29077321E+01  d E =-.468580E-01
 curvature:  -2.28 expect dE=-0.394E-05 dE for cont linesearch -0.394E-05
 trial: gam=-0.00886 g(F)=  0.158E-53 g(S)=  0.173E-05 ort = 0.194E-03 (trialstep = 0.160E+01)
 search vector abs. value=  0.238E-09
 reached required accuracy - stopping structural energy minimisation
Note: The following floating-point exceptions are signalling: IEEE_UNDERFLOW_FLAG IEEE_DENORMAL
 writing wavefunctions
 writing wavefunctions
Note: The following floating-point exceptions are signalling: IEEE_UNDERFLOW_FLAG IEEE_DENORMAL
Note: The following floating-point exceptions are signalling: IEEE_UNDERFLOW_FLAG IEEE_DENORMAL
Note: The following floating-point exceptions are signalling: IEEE_UNDERFLOW_FLAG IEEE_DENORMAL
