       N       E                     dE             d eps       ncg     rms          rms(c)
DAV:   1    -0.253711537516E+01   -0.25371E+01   -0.45841E-01  1095   0.235E+00    0.100E+00
DAV:   2    -0.286275830587E+01   -0.32564E+00   -0.80033E-02  1055   0.140E+00    0.109E-01
DAV:   3    -0.286145577890E+01    0.13025E-02   -0.10480E-03  1025   0.166E-01    0.505E-02
DAV:   4    -0.286115391851E+01    0.30186E-03   -0.60297E-05   775   0.382E-02    0.515E-03
DAV:   5    -0.286114782966E+01    0.60888E-05   -0.32988E-06   450   0.110E-02
   1 F= -.28611478E+01 E0= -.28608352E+01  d E =-.286115E+01
       N       E                     dE             d eps       ncg     rms          rms(c)
DAV:   1    -0.288059947947E+01   -0.19446E-01   -0.16148E-02   950   0.700E-01    0.242E-02
DAV:   2    -0.288061312074E+01   -0.13641E-04   -0.18167E-04   975   0.826E-02
   2 F= -.28806131E+01 E0= -.28803101E+01  d E =-.194653E-01
       N       E                     dE             d eps       ncg     rms          rms(c)
DAV:   1    -0.290791658820E+01   -0.27317E-01   -0.16191E-01   930   0.232E+00    0.766E-02
DAV:   2    -0.290803101243E+01   -0.11442E-03   -0.16869E-03  1060   0.263E-01    0.468E-02
DAV:   3    -0.290800586014E+01    0.25152E-04   -0.52930E-05   650   0.408E-02
   3 F= -.29080059E+01 E0= -.29077321E+01  d E =-.468580E-01
