 vasp.6.2.1 16May21 (build Dec 20 2021 17:02:34) complex                         
 executed on             LinuxGNU date 2025.09.22  07:58:44
 running on    1 total cores
 distrk:  each k-point on    1 cores,    1 groups
 distr:  one band on NCORE=   1 cores,    1 groups


--------------------------------------------------------------------------------------------------------


 INCAR:
   ENCUT = 500
   ISIF = 3
   IBRION = 2
   NSW = 100
   LVTOT = .TRUE.
   LVHAR = .TRUE.

 POTCAR:    PAW Na 24Mar1998                      
 POTCAR:    PAW Na 24Mar1998                      
   VRHFIN =Na: s1p0                                                                                 
   LEXCH  = CA                                                                                      
   EATOM  =     5.1909 eV,    0.3815 Ry                                                             
                                                                                                    
   TITEL  = PAW Na 24Mar1998                                                                        
   LULTRA =        F    use ultrasoft PP ?                                                          
   IUNSCR =        1    unscreen: 0-lin 1-nonlin 2-no                                               
   RPACOR =    1.800    partial core radius                                                         
   POMASS =   22.990; ZVAL   =    1.000    mass and valenz                                          
   RCORE  =    2.200    outmost cutoff radius                                                       
   RWIGS  =    3.320; RWIGS  =    1.757    wigner-seitz radius (au A)                               
   ENMAX  =  101.956; ENMIN  =   76.467 eV                                                          
   ICORE  =        2    local potential                                                             
   LCOR   =        T    correct aug charges                                                         
   LPAW   =        T    paw PP                                                                      
   EAUG   =  250.695                                                                                
   DEXC   =    0.000                                                                                
   RMAX   =    2.245    core radius for proj-oper                                                   
   RAUG   =    1.300    factor for augmentation sphere                                              
   RDEP   =    2.259    radius for radial grids                                                     
   RDEPT  =    2.115    core radius for aug-charge                                                  
                                                                                                    
   Atomic configuration                                                                             
    6 entries                                                                                       
     n  l   j            E        occ.                                                              
     1  0  0.50     -1026.9069   2.0000                                                             
     2  0  0.50       -56.2703   2.0000                                                             
     2  1  1.50       -28.8156   6.0000                                                             
     3  0  0.50        -2.8217   1.0000                                                             
     3  1  0.50        -2.8164   0.0000                                                             
     3  2  1.50        -1.3606   0.0000                                                             
   Description                                                                                      
     l       E           TYP  RCUT    TYP  RCUT                                                     
     0     -2.8217328     23  2.200                                                                 
     0     27.2116520     23  2.200                                                                 
     1     -2.8164060     23  2.200                                                                 
     2     -1.3605826     23  2.200                                                                 
  local pseudopotential read in
  partial core-charges read in
  partial kinetic energy density read in
  atomic valenz-charges read in
  non local Contribution for L=           0  read in
    real space projection operators read in
  non local Contribution for L=           0  read in
    real space projection operators read in
  non local Contribution for L=           1  read in
    real space projection operators read in
    PAW grid and wavefunctions read in

   number of l-projection  operators is LMAX  =           3
   number of lm-projection operators is LMMAX =           5

  PAW Na 24Mar1998                      :
 energy of atom  1       EATOM=   -5.1909
 kinetic energy error for atom=    0.0000 (will be added to EATOM!!)


 POSCAR: Na
  positions in cartesian coordinates
  No initial velocities read in
 exchange correlation table for  LEXCH =        2
   RHO(1)=    0.500       N(1)  =     2000
   RHO(2)=  100.500       N(2)  =     4000



--------------------------------------------------------------------------------------------------------


 ion  position               nearest neighbor table
   1  0.000  0.000  0.000-   2 3.71   2 3.71   2 3.71   2 3.71   2 3.71   2 3.71   2 3.71   2 3.71

   2  0.500  0.500  0.500-   1 3.71   1 3.71   1 3.71   1 3.71   1 3.71   1 3.71   1 3.71   1 3.71


  LATTYP: Found a simple cubic cell.
 ALAT       =     4.2820000648
  
  Lattice vectors:
  
 A1 = (   4.2820000648,   0.0000000000,   0.0000000000)
 A2 = (   0.0000000000,   4.2820000648,   0.0000000000)
 A3 = (   0.0000000000,   0.0000000000,   4.2820000648)


Analysis of symmetry for initial positions (statically):
=====================================================================
 Subroutine PRICEL returns following result:
 
  LATTYP: Found a body centered cubic cell.
 ALAT       =     4.2820000645
  
  Lattice vectors:
  
 A1 = (   2.1410000320,   2.1410000320,  -2.1410000328)
 A2 = (  -2.1410000320,   2.1410000328,   2.1410000328)
 A3 = (   2.1410000320,  -2.1410000328,   2.1410000320)
 
   2 primitive cells build up your supercell.
 

 Routine SETGRP: Setting up the symmetry group for a 
 simple cubic supercell.


 Subroutine GETGRP returns: Found 48 space group operations
 (whereof 48 operations were pure point group operations)
 out of a pool of 48 trial point group operations.


The static configuration has the point symmetry O_h .


Analysis of symmetry for dynamics (positions and initial velocities):
=====================================================================
 Subroutine PRICEL returns following result:
 
  LATTYP: Found a body centered cubic cell.
 ALAT       =     4.2820000645
  
  Lattice vectors:
  
 A1 = (   2.1410000320,   2.1410000320,  -2.1410000328)
 A2 = (  -2.1410000320,   2.1410000328,   2.1410000328)
 A3 = (   2.1410000320,  -2.1410000328,   2.1410000320)
 
   2 primitive cells build up your supercell.
 

 Routine SETGRP: Setting up the symmetry group for a 
 simple cubic supercell.


 Subroutine GETGRP returns: Found 48 space group operations
 (whereof 48 operations were pure point group operations)
 out of a pool of 48 trial point group operations.


The dynamic configuration has the point symmetry O_h .


 Subroutine INISYM returns: Found 48 space group operations
 (whereof 48 operations are pure point group operations),
 and found     2 'primitive' translations


----------------------------------------------------------------------------------------

                                     Primitive cell                                     

  volume of cell :      39.2564

  direct lattice vectors                    reciprocal lattice vectors
     2.141000032  2.141000032 -2.141000033     0.233535728  0.233535727 -0.000000000
    -2.141000032  2.141000033  2.141000033     0.000000000  0.233535727  0.233535727
     2.141000032 -2.141000033  2.141000032     0.233535728 -0.000000000  0.233535727

  length of vectors
     3.708320835  3.708320835  3.708320835     0.330269393  0.330269393  0.330269393

  position of ions in fractional coordinates (direct lattice)
     0.000000000  0.000000000  0.000000000

  ion indices of the primitive-cell ions
   primitive index   ion index
                 1           1

----------------------------------------------------------------------------------------



 KPOINTS: KPOINTS created by Atomic Simulation Env

Automatic generation of k-mesh.
 Grid dimensions read from file:
 generate k-points for:   13   13   13

 Generating k-lattice:

  Cartesian coordinates                     Fractional coordinates (reciprocal lattice)
     0.017964287  0.000000000  0.000000000     0.076923077  0.000000000  0.000000000
     0.000000000  0.017964287  0.000000000     0.000000000  0.076923077  0.000000000
     0.000000000  0.000000000  0.017964287     0.000000000  0.000000000  0.076923077

  Length of vectors
     0.017964287  0.017964287  0.017964287

  Shift w.r.t. Gamma in fractional coordinates (k-lattice)
     0.000000000  0.000000000  0.000000000

 
 Subroutine IBZKPT returns following result:
 ===========================================
 
 Found     84 irreducible k-points:
 
 Following reciprocal coordinates:
            Coordinates               Weight
  0.000000  0.000000  0.000000      1.000000
  0.076923  0.000000  0.000000      6.000000
  0.153846  0.000000  0.000000      6.000000
  0.230769  0.000000  0.000000      6.000000
  0.307692  0.000000  0.000000      6.000000
  0.384615  0.000000  0.000000      6.000000
  0.461538  0.000000  0.000000      6.000000
  0.076923  0.076923  0.000000     12.000000
  0.153846  0.076923  0.000000     24.000000
  0.230769  0.076923  0.000000     24.000000
  0.307692  0.076923  0.000000     24.000000
  0.384615  0.076923  0.000000     24.000000
  0.461538  0.076923  0.000000     24.000000
  0.153846  0.153846  0.000000     12.000000
  0.230769  0.153846  0.000000     24.000000
  0.307692  0.153846  0.000000     24.000000
  0.384615  0.153846  0.000000     24.000000
  0.461538  0.153846  0.000000     24.000000
  0.230769  0.230769  0.000000     12.000000
  0.307692  0.230769  0.000000     24.000000
  0.384615  0.230769  0.000000     24.000000
  0.461538  0.230769  0.000000     24.000000
  0.307692  0.307692  0.000000     12.000000
  0.384615  0.307692  0.000000     24.000000
  0.461538  0.307692  0.000000     24.000000
  0.384615  0.384615  0.000000     12.000000
  0.461538  0.384615  0.000000     24.000000
  0.461538  0.461538  0.000000     12.000000
  0.076923  0.076923  0.076923      8.000000
  0.153846  0.076923  0.076923     24.000000
  0.230769  0.076923  0.076923     24.000000
  0.307692  0.076923  0.076923     24.000000
  0.384615  0.076923  0.076923     24.000000
  0.461538  0.076923  0.076923     24.000000
  0.153846  0.153846  0.076923     24.000000
  0.230769  0.153846  0.076923     48.000000
  0.307692  0.153846  0.076923     48.000000
  0.384615  0.153846  0.076923     48.000000
  0.461538  0.153846  0.076923     48.000000
  0.230769  0.230769  0.076923     24.000000
  0.307692  0.230769  0.076923     48.000000
  0.384615  0.230769  0.076923     48.000000
  0.461538  0.230769  0.076923     48.000000
  0.307692  0.307692  0.076923     24.000000
  0.384615  0.307692  0.076923     48.000000
  0.461538  0.307692  0.076923     48.000000
  0.384615  0.384615  0.076923     24.000000
  0.461538  0.384615  0.076923     48.000000
  0.461538  0.461538  0.076923     24.000000
  0.153846  0.153846  0.153846      8.000000
  0.230769  0.153846  0.153846     24.000000
  0.307692  0.153846  0.153846     24.000000
  0.384615  0.153846  0.153846     24.000000
  0.461538  0.153846  0.153846     24.000000
  0.230769  0.230769  0.153846     24.000000
  0.307692  0.230769  0.153846     48.000000
  0.384615  0.230769  0.153846     48.000000
  0.461538  0.230769  0.153846     48.000000
  0.307692  0.307692  0.153846     24.000000
  0.384615  0.307692  0.153846     48.000000
  0.461538  0.307692  0.153846     48.000000
  0.384615  0.384615  0.153846     24.000000
  0.461538  0.384615  0.153846     48.000000
  0.461538  0.461538  0.153846     24.000000
  0.230769  0.230769  0.230769      8.000000
  0.307692  0.230769  0.230769     24.000000
  0.384615  0.230769  0.230769     24.000000
  0.461538  0.230769  0.230769     24.000000
  0.307692  0.307692  0.230769     24.000000
  0.384615  0.307692  0.230769     48.000000
  0.461538  0.307692  0.230769     48.000000
  0.384615  0.384615  0.230769     24.000000
  0.461538  0.384615  0.230769     48.000000
  0.461538  0.461538  0.230769     24.000000
  0.307692  0.307692  0.307692      8.000000
  0.384615  0.307692  0.307692     24.000000
  0.461538  0.307692  0.307692     24.000000
  0.384615  0.384615  0.307692     24.000000
  0.461538  0.384615  0.307692     48.000000
  0.461538  0.461538  0.307692     24.000000
  0.384615  0.384615  0.384615      8.000000
  0.461538  0.384615  0.384615     24.000000
  0.461538  0.461538  0.384615     24.000000
  0.461538  0.461538  0.461538      8.000000
 
 Following cartesian coordinates:
            Coordinates               Weight
  0.000000  0.000000  0.000000      1.000000
  0.017964  0.000000  0.000000      6.000000
  0.035929  0.000000  0.000000      6.000000
  0.053893  0.000000  0.000000      6.000000
  0.071857  0.000000  0.000000      6.000000
  0.089821  0.000000  0.000000      6.000000
  0.107786  0.000000  0.000000      6.000000
  0.017964  0.017964  0.000000     12.000000
  0.035929  0.017964  0.000000     24.000000
  0.053893  0.017964  0.000000     24.000000
  0.071857  0.017964  0.000000     24.000000
  0.089821  0.017964  0.000000     24.000000
  0.107786  0.017964  0.000000     24.000000
  0.035929  0.035929  0.000000     12.000000
  0.053893  0.035929  0.000000     24.000000
  0.071857  0.035929  0.000000     24.000000
  0.089821  0.035929  0.000000     24.000000
  0.107786  0.035929  0.000000     24.000000
  0.053893  0.053893  0.000000     12.000000
  0.071857  0.053893  0.000000     24.000000
  0.089821  0.053893  0.000000     24.000000
  0.107786  0.053893  0.000000     24.000000
  0.071857  0.071857  0.000000     12.000000
  0.089821  0.071857  0.000000     24.000000
  0.107786  0.071857  0.000000     24.000000
  0.089821  0.089821  0.000000     12.000000
  0.107786  0.089821  0.000000     24.000000
  0.107786  0.107786  0.000000     12.000000
  0.017964  0.017964  0.017964      8.000000
  0.035929  0.017964  0.017964     24.000000
  0.053893  0.017964  0.017964     24.000000
  0.071857  0.017964  0.017964     24.000000
  0.089821  0.017964  0.017964     24.000000
  0.107786  0.017964  0.017964     24.000000
  0.035929  0.035929  0.017964     24.000000
  0.053893  0.035929  0.017964     48.000000
  0.071857  0.035929  0.017964     48.000000
  0.089821  0.035929  0.017964     48.000000
  0.107786  0.035929  0.017964     48.000000
  0.053893  0.053893  0.017964     24.000000
  0.071857  0.053893  0.017964     48.000000
  0.089821  0.053893  0.017964     48.000000
  0.107786  0.053893  0.017964     48.000000
  0.071857  0.071857  0.017964     24.000000
  0.089821  0.071857  0.017964     48.000000
  0.107786  0.071857  0.017964     48.000000
  0.089821  0.089821  0.017964     24.000000
  0.107786  0.089821  0.017964     48.000000
  0.107786  0.107786  0.017964     24.000000
  0.035929  0.035929  0.035929      8.000000
  0.053893  0.035929  0.035929     24.000000
  0.071857  0.035929  0.035929     24.000000
  0.089821  0.035929  0.035929     24.000000
  0.107786  0.035929  0.035929     24.000000
  0.053893  0.053893  0.035929     24.000000
  0.071857  0.053893  0.035929     48.000000
  0.089821  0.053893  0.035929     48.000000
  0.107786  0.053893  0.035929     48.000000
  0.071857  0.071857  0.035929     24.000000
  0.089821  0.071857  0.035929     48.000000
  0.107786  0.071857  0.035929     48.000000
  0.089821  0.089821  0.035929     24.000000
  0.107786  0.089821  0.035929     48.000000
  0.107786  0.107786  0.035929     24.000000
  0.053893  0.053893  0.053893      8.000000
  0.071857  0.053893  0.053893     24.000000
  0.089821  0.053893  0.053893     24.000000
  0.107786  0.053893  0.053893     24.000000
  0.071857  0.071857  0.053893     24.000000
  0.089821  0.071857  0.053893     48.000000
  0.107786  0.071857  0.053893     48.000000
  0.089821  0.089821  0.053893     24.000000
  0.107786  0.089821  0.053893     48.000000
  0.107786  0.107786  0.053893     24.000000
  0.071857  0.071857  0.071857      8.000000
  0.089821  0.071857  0.071857     24.000000
  0.107786  0.071857  0.071857     24.000000
  0.089821  0.089821  0.071857     24.000000
  0.107786  0.089821  0.071857     48.000000
  0.107786  0.107786  0.071857     24.000000
  0.089821  0.089821  0.089821      8.000000
  0.107786  0.089821  0.089821     24.000000
  0.107786  0.107786  0.089821     24.000000
  0.107786  0.107786  0.107786      8.000000
 


--------------------------------------------------------------------------------------------------------




 Dimension of arrays:
   k-points           NKPTS =     84   k-points in BZ     NKDIM =     84   number of bands    NBANDS=      5
   number of dos      NEDOS =    301   number of ions     NIONS =      2
   non local maximal  LDIM  =      3   non local SUM 2l+1 LMDIM =      5
   total plane-waves  NPLWV =  13824
   max r-space proj   IRMAX =      1   max aug-charges    IRDMAX=   8771
   dimension x,y,z NGX =    24 NGY =   24 NGZ =   24
   dimension x,y,z NGXF=    48 NGYF=   48 NGZF=   48
   support grid    NGXF=    48 NGYF=   48 NGZF=   48
   ions per type =               2
   NGX,Y,Z   is equivalent  to a cutoff of   9.32,  9.32,  9.32 a.u.
   NGXF,Y,Z  is equivalent  to a cutoff of  18.64, 18.64, 18.64 a.u.

 SYSTEM =  unknown system                          
 POSCAR =  Na                                      

 Startparameter for this run:
   NWRITE =      2    write-flag & timer
   PREC   = normal    normal or accurate (medium, high low for compatibility)
   ISTART =      1    job   : 0-new  1-cont  2-samecut
   ICHARG =      0    charge: 1-file 2-atom 10-const
   ISPIN  =      1    spin polarized calculation?
   LNONCOLLINEAR =      F non collinear calculations
   LSORBIT =      F    spin-orbit coupling
   INIWAV =      1    electr: 0-lowe 1-rand  2-diag
   LASPH  =      F    aspherical Exc in radial PAW
 Electronic Relaxation 1
   ENCUT  =  500.0 eV  36.75 Ry    6.06 a.u.   7.81  7.81  7.81*2*pi/ulx,y,z
   ENINI  =  500.0     initial cutoff
   ENAUG  =  250.7 eV  augmentation charge cutoff
   NELM   =     60;   NELMIN=  2; NELMDL=  0     # of ELM steps 
   EDIFF  = 0.1E-03   stopping-criterion for ELM
   LREAL  =      F    real-space projection
   NLSPLINE    = F    spline interpolate recip. space projectors
   LCOMPAT=      F    compatible to vasp.4.4
   GGA_COMPAT  = T    GGA compatible to vasp.4.4-vasp.4.6
   LMAXPAW     = -100 max onsite density
   LMAXMIX     =    2 max onsite mixed and CHGCAR
   VOSKOWN=      0    Vosko Wilk Nusair interpolation
   ROPT   =    0.00000
 Ionic relaxation
   EDIFFG = 0.1E-02   stopping-criterion for IOM
   NSW    =    100    number of steps for IOM
   NBLOCK =      1;   KBLOCK =    100    inner block; outer block 
   IBRION =      2    ionic relax: 0-MD 1-quasi-New 2-CG
   NFREE  =      1    steps in history (QN), initial steepest desc. (CG)
   ISIF   =      3    stress and relaxation
   IWAVPR =     11    prediction:  0-non 1-charg 2-wave 3-comb
   ISYM   =      2    0-nonsym 1-usesym 2-fastsym
   LCORR  =      T    Harris-Foulkes like correction to forces

   POTIM  = 0.5000    time-step for ionic-motion
   TEIN   =    0.0    initial temperature
   TEBEG  =    0.0;   TEEND  =   0.0 temperature during run
   SMASS  =  -3.00    Nose mass-parameter (am)
   estimated Nose-frequenzy (Omega)   =  0.10E-29 period in steps = 0.13E+47 mass=  -0.419E-27a.u.
   SCALEE = 1.0000    scale energy and forces
   NPACO  =    256;   APACO  = 16.0  distance and # of slots for P.C.
   PSTRESS=    0.0 pullay stress

  Mass of Ions in am
   POMASS =  22.99
  Ionic Valenz
   ZVAL   =   1.00
  Atomic Wigner-Seitz radii
   RWIGS  =  -1.00
  virtual crystal weights 
   VCA    =   1.00
   NELECT =       2.0000    total number of electrons
   NUPDOWN=      -1.0000    fix difference up-down

 DOS related values:
   EMIN   =  10.00;   EMAX   =-10.00  energy-range for DOS
   EFERMI =   0.00
   ISMEAR =     1;   SIGMA  =   0.20  broadening in eV -4-tet -1-fermi 0-gaus

 Electronic relaxation 2 (details)
   IALGO  =     38    algorithm
   LDIAG  =      T    sub-space diagonalisation (order eigenvalues)
   LSUBROT=      F    optimize rotation matrix (better conditioning)
   TURBO    =      0    0=normal 1=particle mesh
   IRESTART =      0    0=no restart 2=restart with 2 vectors
   NREBOOT  =      0    no. of reboots
   NMIN     =      0    reboot dimension
   EREF     =   0.00    reference energy to select bands
   IMIX   =      4    mixing-type and parameters
     AMIX     =   0.40;   BMIX     =  1.00
     AMIX_MAG =   1.60;   BMIX_MAG =  1.00
     AMIN     =   0.10
     WC   =   100.;   INIMIX=   1;  MIXPRE=   1;  MAXMIX= -45

 Intra band minimization:
   WEIMIN = 0.0010     energy-eigenvalue tresh-hold
   EBREAK =  0.50E-05  absolut break condition
   DEPER  =   0.30     relativ break condition  

   TIME   =   0.40     timestep for ELM

  volume/ion in A,a.u.               =      39.26       264.91
  Fermi-wavevector in a.u.,A,eV,Ry     =   0.481694  0.910270  3.156951  0.232029
  Thomas-Fermi vector in A             =   1.479925

 Write flags
   LWAVE        =      T    write WAVECAR
   LDOWNSAMPLE  =      F    k-point downsampling of WAVECAR
   LCHARG       =      T    write CHGCAR
   LVTOT        =      F    write LOCPOT, total local potential
   LVHAR        =      T    write LOCPOT, Hartree potential only
   LELF         =      F    write electronic localiz. function (ELF)
   LORBIT       =      0    0 simple, 1 ext, 2 COOP (PROOUT), +10 PAW based schemes


 Dipole corrections
   LMONO  =      F    monopole corrections only (constant potential shift)
   LDIPOL =      F    correct potential (dipole corrections)
   IDIPOL =      0    1-x, 2-y, 3-z, 4-all directions 
   EPSILON=  1.0000000 bulk dielectric constant

 Exchange correlation treatment:
   GGA     =    --    GGA type
   LEXCH   =     2    internal setting for exchange type
   VOSKOWN=      0    Vosko Wilk Nusair interpolation
   LHFCALC =     F    Hartree Fock is set to
   LHFONE  =     F    Hartree Fock one center treatment
   AEXX    =    0.0000 exact exchange contribution

 Linear response parameters
   LEPSILON=     F    determine dielectric tensor
   LRPA    =     F    only Hartree local field effects (RPA)
   LNABLA  =     F    use nabla operator in PAW spheres
   LVEL    =     F    velocity operator in full k-point grid
   LINTERFAST=   F  fast interpolation
   KINTER  =     0    interpolate to denser k-point grid
   CSHIFT  =0.1000    complex shift for real part using Kramers Kronig
   OMEGAMAX=  -1.0    maximum frequency
   DEG_THRESHOLD= 0.2000000E-02 threshold for treating states as degnerate
   RTIME   =   -0.100 relaxation time in fs
  (WPLASMAI=    0.000 imaginary part of plasma frequency in eV, 0.658/RTIME)
   DFIELD  = 0.0000000 0.0000000 0.0000000 field for delta impulse in time

 Orbital magnetization related:
   ORBITALMAG=     F  switch on orbital magnetization
   LCHIMAG   =     F  perturbation theory with respect to B field
   DQ        =  0.001000  dq finite difference perturbation B field
   LLRAUG    =     F  two centre corrections for induced B field



--------------------------------------------------------------------------------------------------------


 conjugate gradient relaxation of ions
 charge density and potential will be updated during run
 non-spin polarized calculation
 Variant of blocked Davidson
 Davidson routine will perform the subspace rotation
 perform sub-space diagonalisation
    after iterative eigenvector-optimisation
 modified Broyden-mixing scheme, WC =      100.0
 initial mixing is a Kerker type mixing with AMIX =  0.4000 and BMIX =      1.0000
 Hartree-type preconditioning will be used
 using additional bands            4
 reciprocal scheme for non local part
 use partial core corrections
 calculate Harris-corrections to forces   (improved forces if not selfconsistent)
 use of overlap-Matrix (Vanderbilt PP)
 Methfessel and Paxton  Order N= 1 SIGMA  =   0.20


--------------------------------------------------------------------------------------------------------


  energy-cutoff  :      500.00
  volume of cell :       78.51
      direct lattice vectors                 reciprocal lattice vectors
     4.282000065  0.000000000  0.000000000     0.233535727  0.000000000  0.000000000
     0.000000000  4.282000065  0.000000000     0.000000000  0.233535727  0.000000000
     0.000000000  0.000000000  4.282000065     0.000000000  0.000000000  0.233535727

  length of vectors
     4.282000065  4.282000065  4.282000065     0.233535727  0.233535727  0.233535727



 old parameters found on file WAVECAR:
  energy-cutoff  :      500.00
  volume of cell :       78.51
      direct lattice vectors                 reciprocal lattice vectors
     4.282000065  0.000000000  0.000000000     0.233535727  0.000000000  0.000000000
     0.000000000  4.282000065  0.000000000     0.000000000  0.233535727  0.000000000
     0.000000000  0.000000000  4.282000065     0.000000000  0.000000000  0.233535727

  length of vectors


 k-points in units of 2pi/SCALE and weight: KPOINTS created by Atomic Simulation Env
   0.00000000  0.00000000  0.00000000       0.000
   0.01796429  0.00000000  0.00000000       0.003
   0.03592857  0.00000000  0.00000000       0.003
   0.05389286  0.00000000  0.00000000       0.003
   0.07185715  0.00000000  0.00000000       0.003
   0.08982143  0.00000000  0.00000000       0.003
   0.10778572  0.00000000  0.00000000       0.003
   0.01796429  0.01796429  0.00000000       0.005
   0.03592857  0.01796429  0.00000000       0.011
   0.05389286  0.01796429  0.00000000       0.011
   0.07185715  0.01796429  0.00000000       0.011
   0.08982143  0.01796429  0.00000000       0.011
   0.10778572  0.01796429  0.00000000       0.011
   0.03592857  0.03592857  0.00000000       0.005
   0.05389286  0.03592857  0.00000000       0.011
   0.07185715  0.03592857  0.00000000       0.011
   0.08982143  0.03592857  0.00000000       0.011
   0.10778572  0.03592857  0.00000000       0.011
   0.05389286  0.05389286  0.00000000       0.005
   0.07185715  0.05389286  0.00000000       0.011
   0.08982143  0.05389286  0.00000000       0.011
   0.10778572  0.05389286  0.00000000       0.011
   0.07185715  0.07185715  0.00000000       0.005
   0.08982143  0.07185715  0.00000000       0.011
   0.10778572  0.07185715  0.00000000       0.011
   0.08982143  0.08982143  0.00000000       0.005
   0.10778572  0.08982143  0.00000000       0.011
   0.10778572  0.10778572  0.00000000       0.005
   0.01796429  0.01796429  0.01796429       0.004
   0.03592857  0.01796429  0.01796429       0.011
   0.05389286  0.01796429  0.01796429       0.011
   0.07185715  0.01796429  0.01796429       0.011
   0.08982143  0.01796429  0.01796429       0.011
   0.10778572  0.01796429  0.01796429       0.011
   0.03592857  0.03592857  0.01796429       0.011
   0.05389286  0.03592857  0.01796429       0.022
   0.07185715  0.03592857  0.01796429       0.022
   0.08982143  0.03592857  0.01796429       0.022
   0.10778572  0.03592857  0.01796429       0.022
   0.05389286  0.05389286  0.01796429       0.011
   0.07185715  0.05389286  0.01796429       0.022
   0.08982143  0.05389286  0.01796429       0.022
   0.10778572  0.05389286  0.01796429       0.022
   0.07185715  0.07185715  0.01796429       0.011
   0.08982143  0.07185715  0.01796429       0.022
   0.10778572  0.07185715  0.01796429       0.022
   0.08982143  0.08982143  0.01796429       0.011
   0.10778572  0.08982143  0.01796429       0.022
   0.10778572  0.10778572  0.01796429       0.011
   0.03592857  0.03592857  0.03592857       0.004
   0.05389286  0.03592857  0.03592857       0.011
   0.07185715  0.03592857  0.03592857       0.011
   0.08982143  0.03592857  0.03592857       0.011
   0.10778572  0.03592857  0.03592857       0.011
   0.05389286  0.05389286  0.03592857       0.011
   0.07185715  0.05389286  0.03592857       0.022
   0.08982143  0.05389286  0.03592857       0.022
   0.10778572  0.05389286  0.03592857       0.022
   0.07185715  0.07185715  0.03592857       0.011
   0.08982143  0.07185715  0.03592857       0.022
   0.10778572  0.07185715  0.03592857       0.022
   0.08982143  0.08982143  0.03592857       0.011
   0.10778572  0.08982143  0.03592857       0.022
   0.10778572  0.10778572  0.03592857       0.011
   0.05389286  0.05389286  0.05389286       0.004
   0.07185715  0.05389286  0.05389286       0.011
   0.08982143  0.05389286  0.05389286       0.011
   0.10778572  0.05389286  0.05389286       0.011
   0.07185715  0.07185715  0.05389286       0.011
   0.08982143  0.07185715  0.05389286       0.022
   0.10778572  0.07185715  0.05389286       0.022
   0.08982143  0.08982143  0.05389286       0.011
   0.10778572  0.08982143  0.05389286       0.022
   0.10778572  0.10778572  0.05389286       0.011
   0.07185715  0.07185715  0.07185715       0.004
   0.08982143  0.07185715  0.07185715       0.011
   0.10778572  0.07185715  0.07185715       0.011
   0.08982143  0.08982143  0.07185715       0.011
   0.10778572  0.08982143  0.07185715       0.022
   0.10778572  0.10778572  0.07185715       0.011
   0.08982143  0.08982143  0.08982143       0.004
   0.10778572  0.08982143  0.08982143       0.011
   0.10778572  0.10778572  0.08982143       0.011
   0.10778572  0.10778572  0.10778572       0.004

 k-points in reciprocal lattice and weights: KPOINTS created by Atomic Simulation Env
   0.00000000  0.00000000  0.00000000       0.000
   0.07692308  0.00000000  0.00000000       0.003
   0.15384615  0.00000000  0.00000000       0.003
   0.23076923  0.00000000  0.00000000       0.003
   0.30769231  0.00000000  0.00000000       0.003
   0.38461538  0.00000000  0.00000000       0.003
   0.46153846  0.00000000  0.00000000       0.003
   0.07692308  0.07692308  0.00000000       0.005
   0.15384615  0.07692308  0.00000000       0.011
   0.23076923  0.07692308  0.00000000       0.011
   0.30769231  0.07692308  0.00000000       0.011
   0.38461538  0.07692308  0.00000000       0.011
   0.46153846  0.07692308  0.00000000       0.011
   0.15384615  0.15384615  0.00000000       0.005
   0.23076923  0.15384615  0.00000000       0.011
   0.30769231  0.15384615  0.00000000       0.011
   0.38461538  0.15384615  0.00000000       0.011
   0.46153846  0.15384615  0.00000000       0.011
   0.23076923  0.23076923  0.00000000       0.005
   0.30769231  0.23076923  0.00000000       0.011
   0.38461538  0.23076923  0.00000000       0.011
   0.46153846  0.23076923  0.00000000       0.011
   0.30769231  0.30769231  0.00000000       0.005
   0.38461538  0.30769231  0.00000000       0.011
   0.46153846  0.30769231  0.00000000       0.011
   0.38461538  0.38461538  0.00000000       0.005
   0.46153846  0.38461538  0.00000000       0.011
   0.46153846  0.46153846  0.00000000       0.005
   0.07692308  0.07692308  0.07692308       0.004
   0.15384615  0.07692308  0.07692308       0.011
   0.23076923  0.07692308  0.07692308       0.011
   0.30769231  0.07692308  0.07692308       0.011
   0.38461538  0.07692308  0.07692308       0.011
   0.46153846  0.07692308  0.07692308       0.011
   0.15384615  0.15384615  0.07692308       0.011
   0.23076923  0.15384615  0.07692308       0.022
   0.30769231  0.15384615  0.07692308       0.022
   0.38461538  0.15384615  0.07692308       0.022
   0.46153846  0.15384615  0.07692308       0.022
   0.23076923  0.23076923  0.07692308       0.011
   0.30769231  0.23076923  0.07692308       0.022
   0.38461538  0.23076923  0.07692308       0.022
   0.46153846  0.23076923  0.07692308       0.022
   0.30769231  0.30769231  0.07692308       0.011
   0.38461538  0.30769231  0.07692308       0.022
   0.46153846  0.30769231  0.07692308       0.022
   0.38461538  0.38461538  0.07692308       0.011
   0.46153846  0.38461538  0.07692308       0.022
   0.46153846  0.46153846  0.07692308       0.011
   0.15384615  0.15384615  0.15384615       0.004
   0.23076923  0.15384615  0.15384615       0.011
   0.30769231  0.15384615  0.15384615       0.011
   0.38461538  0.15384615  0.15384615       0.011
   0.46153846  0.15384615  0.15384615       0.011
   0.23076923  0.23076923  0.15384615       0.011
   0.30769231  0.23076923  0.15384615       0.022
   0.38461538  0.23076923  0.15384615       0.022
   0.46153846  0.23076923  0.15384615       0.022
   0.30769231  0.30769231  0.15384615       0.011
   0.38461538  0.30769231  0.15384615       0.022
   0.46153846  0.30769231  0.15384615       0.022
   0.38461538  0.38461538  0.15384615       0.011
   0.46153846  0.38461538  0.15384615       0.022
   0.46153846  0.46153846  0.15384615       0.011
   0.23076923  0.23076923  0.23076923       0.004
   0.30769231  0.23076923  0.23076923       0.011
   0.38461538  0.23076923  0.23076923       0.011
   0.46153846  0.23076923  0.23076923       0.011
   0.30769231  0.30769231  0.23076923       0.011
   0.38461538  0.30769231  0.23076923       0.022
   0.46153846  0.30769231  0.23076923       0.022
   0.38461538  0.38461538  0.23076923       0.011
   0.46153846  0.38461538  0.23076923       0.022
   0.46153846  0.46153846  0.23076923       0.011
   0.30769231  0.30769231  0.30769231       0.004
   0.38461538  0.30769231  0.30769231       0.011
   0.46153846  0.30769231  0.30769231       0.011
   0.38461538  0.38461538  0.30769231       0.011
   0.46153846  0.38461538  0.30769231       0.022
   0.46153846  0.46153846  0.30769231       0.011
   0.38461538  0.38461538  0.38461538       0.004
   0.46153846  0.38461538  0.38461538       0.011
   0.46153846  0.46153846  0.38461538       0.011
   0.46153846  0.46153846  0.46153846       0.004

 position of ions in fractional coordinates (direct lattice) 
   0.00000000  0.00000000  0.00000000
   0.50000000  0.50000000  0.50000000

 position of ions in cartesian coordinates  (Angst):
   0.00000000  0.00000000  0.00000000
   2.14100003  2.14100003  2.14100003



--------------------------------------------------------------------------------------------------------


 k-point   1 :   0.0000 0.0000 0.0000  plane waves:    1935
 k-point   2 :   0.0769 0.0000 0.0000  plane waves:    1975
 k-point   3 :   0.1538 0.0000 0.0000  plane waves:    1983
 k-point   4 :   0.2308 0.0000 0.0000  plane waves:    1980
 k-point   5 :   0.3077 0.0000 0.0000  plane waves:    1992
 k-point   6 :   0.3846 0.0000 0.0000  plane waves:    1996
 k-point   7 :   0.4615 0.0000 0.0000  plane waves:    2000
 k-point   8 :   0.0769 0.0769 0.0000  plane waves:    1987
 k-point   9 :   0.1538 0.0769 0.0000  plane waves:    1985
 k-point  10 :   0.2308 0.0769 0.0000  plane waves:    1989
 k-point  11 :   0.3077 0.0769 0.0000  plane waves:    1988
 k-point  12 :   0.3846 0.0769 0.0000  plane waves:    1995
 k-point  13 :   0.4615 0.0769 0.0000  plane waves:    1999
 k-point  14 :   0.1538 0.1538 0.0000  plane waves:    1995
 k-point  15 :   0.2308 0.1538 0.0000  plane waves:    1991
 k-point  16 :   0.3077 0.1538 0.0000  plane waves:    1993
 k-point  17 :   0.3846 0.1538 0.0000  plane waves:    1993
 k-point  18 :   0.4615 0.1538 0.0000  plane waves:    1991
 k-point  19 :   0.2308 0.2308 0.0000  plane waves:    1979
 k-point  20 :   0.3077 0.2308 0.0000  plane waves:    1991
 k-point  21 :   0.3846 0.2308 0.0000  plane waves:    1999
 k-point  22 :   0.4615 0.2308 0.0000  plane waves:    1997
 k-point  23 :   0.3077 0.3077 0.0000  plane waves:    2003
 k-point  24 :   0.3846 0.3077 0.0000  plane waves:    2003
 k-point  25 :   0.4615 0.3077 0.0000  plane waves:    2001
 k-point  26 :   0.3846 0.3846 0.0000  plane waves:    2005
 k-point  27 :   0.4615 0.3846 0.0000  plane waves:    1994
 k-point  28 :   0.4615 0.4615 0.0000  plane waves:    1991
 k-point  29 :   0.0769 0.0769 0.0769  plane waves:    1992
 k-point  30 :   0.1538 0.0769 0.0769  plane waves:    1992
 k-point  31 :   0.2308 0.0769 0.0769  plane waves:    1985
 k-point  32 :   0.3077 0.0769 0.0769  plane waves:    1978
 k-point  33 :   0.3846 0.0769 0.0769  plane waves:    1989
 k-point  34 :   0.4615 0.0769 0.0769  plane waves:    1995
 k-point  35 :   0.1538 0.1538 0.0769  plane waves:    1983
 k-point  36 :   0.2308 0.1538 0.0769  plane waves:    1979
 k-point  37 :   0.3077 0.1538 0.0769  plane waves:    1990
 k-point  38 :   0.3846 0.1538 0.0769  plane waves:    1993
 k-point  39 :   0.4615 0.1538 0.0769  plane waves:    2000
 k-point  40 :   0.2308 0.2308 0.0769  plane waves:    1987
 k-point  41 :   0.3077 0.2308 0.0769  plane waves:    1993
 k-point  42 :   0.3846 0.2308 0.0769  plane waves:    1991
 k-point  43 :   0.4615 0.2308 0.0769  plane waves:    1998
 k-point  44 :   0.3077 0.3077 0.0769  plane waves:    1999
 k-point  45 :   0.3846 0.3077 0.0769  plane waves:    2001
 k-point  46 :   0.4615 0.3077 0.0769  plane waves:    1997
 k-point  47 :   0.3846 0.3846 0.0769  plane waves:    1996
 k-point  48 :   0.4615 0.3846 0.0769  plane waves:    2003
 k-point  49 :   0.4615 0.4615 0.0769  plane waves:    2006
 k-point  50 :   0.1538 0.1538 0.1538  plane waves:    1974
 k-point  51 :   0.2308 0.1538 0.1538  plane waves:    1983
 k-point  52 :   0.3077 0.1538 0.1538  plane waves:    1987
 k-point  53 :   0.3846 0.1538 0.1538  plane waves:    1990
 k-point  54 :   0.4615 0.1538 0.1538  plane waves:    1980
 k-point  55 :   0.2308 0.2308 0.1538  plane waves:    1980
 k-point  56 :   0.3077 0.2308 0.1538  plane waves:    1990
 k-point  57 :   0.3846 0.2308 0.1538  plane waves:    1992
 k-point  58 :   0.4615 0.2308 0.1538  plane waves:    1999
 k-point  59 :   0.3077 0.3077 0.1538  plane waves:    1995
 k-point  60 :   0.3846 0.3077 0.1538  plane waves:    1998
 k-point  61 :   0.4615 0.3077 0.1538  plane waves:    2002
 k-point  62 :   0.3846 0.3846 0.1538  plane waves:    2004
 k-point  63 :   0.4615 0.3846 0.1538  plane waves:    2002
 k-point  64 :   0.4615 0.4615 0.1538  plane waves:    2008
 k-point  65 :   0.2308 0.2308 0.2308  plane waves:    1983
 k-point  66 :   0.3077 0.2308 0.2308  plane waves:    1994
 k-point  67 :   0.3846 0.2308 0.2308  plane waves:    1993
 k-point  68 :   0.4615 0.2308 0.2308  plane waves:    1999
 k-point  69 :   0.3077 0.3077 0.2308  plane waves:    1996
 k-point  70 :   0.3846 0.3077 0.2308  plane waves:    1995
 k-point  71 :   0.4615 0.3077 0.2308  plane waves:    1992
 k-point  72 :   0.3846 0.3846 0.2308  plane waves:    2000
 k-point  73 :   0.4615 0.3846 0.2308  plane waves:    1996
 k-point  74 :   0.4615 0.4615 0.2308  plane waves:    2012
 k-point  75 :   0.3077 0.3077 0.3077  plane waves:    1980
 k-point  76 :   0.3846 0.3077 0.3077  plane waves:    1984
 k-point  77 :   0.4615 0.3077 0.3077  plane waves:    2002
 k-point  78 :   0.3846 0.3846 0.3077  plane waves:    1990
 k-point  79 :   0.4615 0.3846 0.3077  plane waves:    1987
 k-point  80 :   0.4615 0.4615 0.3077  plane waves:    1988
 k-point  81 :   0.3846 0.3846 0.3846  plane waves:    1998
 k-point  82 :   0.4615 0.3846 0.3846  plane waves:    1983
 k-point  83 :   0.4615 0.4615 0.3846  plane waves:    1970
 k-point  84 :   0.4615 0.4615 0.4615  plane waves:    1968

 maximum and minimum number of plane-waves per node :      2012     1935

 maximum number of plane-waves:      2012
 maximum index in each direction: 
   IXMAX=    7   IYMAX=    7   IZMAX=    7
   IXMIN=   -8   IYMIN=   -8   IZMIN=   -8


 serial   3D FFT for wavefunctions
 parallel 3D FFT for charge:
    minimum data exchange during FFTs selected (reduces bandwidth)


 total amount of memory used by VASP MPI-rank0    60347. kBytes
=======================================================================

   base      :      30000. kBytes
   nonl-proj :       6824. kBytes
   fftplans  :       3916. kBytes
   grid      :       6018. kBytes
   one-center:          2. kBytes
   wavefun   :      13587. kBytes

     INWAV:  cpu time    0.0201: real time    0.0201
 Broyden mixing: mesh for mixing (old mesh)
   NGX = 15   NGY = 15   NGZ = 15
  (NGX  = 48   NGY  = 48   NGZ  = 48)
  gives a total of   3375 points

 charge density for first step will be calculated from the start-wavefunctions


--------------------------------------------------------------------------------------------------------


 Maximum index for augmentation-charges         8289 (set IRDMAX)


--------------------------------------------------------------------------------------------------------


 initial charge from wavefunction
 First call to EWALD:  gamma=   0.414
 Maximum number of real-space cells 3x 3x 3
 Maximum number of reciprocal cells 3x 3x 3

    FEWALD:  cpu time    0.0009: real time    0.0009


--------------------------------------- Iteration      1(   1)  ---------------------------------------


    POTLOK:  cpu time    0.0250: real time    0.2654
    SETDIJ:  cpu time    0.0031: real time    0.0031
     EDDAV:  cpu time    1.8014: real time    1.8160
       DOS:  cpu time    0.0031: real time    0.0032
    CHARGE:  cpu time    0.1814: real time    0.1828
    MIXING:  cpu time    0.0029: real time    0.0030
    --------------------------------------------
      LOOP:  cpu time    2.0169: real time    2.2735

 eigenvalue-minimisations  :  1095
 total energy-change (2. order) :-0.2537115E+01  (-0.4584080E-01)
 number of electron       2.0000000 magnetization 
 augmentation part        0.0151895 magnetization 

 Broyden mixing:
  rms(total) = 0.10004E+00    rms(broyden)= 0.11944E-01
  rms(prec ) = 0.27098E-01
  weight for this iteration     100.00
  WARNING: grid for Broyden might be to small

 Free energy of the ion-electron system (eV)
  ---------------------------------------------------
  alpha Z        PSCENC =        -1.04353988
  Ewald energy   TEWEN  =       -12.23825003
  -Hartree energ DENC   =        -0.01046841
  -exchange      EXHF   =         0.00000000
  -V(xc)+E(xc)   XCENC  =       -72.55397093
  PAW double counting   =        74.17325786       -0.70846270
  entropy T*S    EENTRO =        -0.00099285
  eigenvalues    EBANDS =        -0.53646201
  atomic energy  EATOM  =        10.38177359
  Solvation  Ediel_sol  =         0.00000000
  ---------------------------------------------------
  free energy    TOTEN  =        -2.53711538 eV

  energy without entropy =       -2.53612252  energy(sigma->0) =       -2.53678442


--------------------------------------------------------------------------------------------------------




--------------------------------------- Iteration      1(   2)  ---------------------------------------


    POTLOK:  cpu time    0.0218: real time    0.0220
    SETDIJ:  cpu time    0.0030: real time    0.0031
     EDDAV:  cpu time    1.7514: real time    1.7728
       DOS:  cpu time    0.0033: real time    0.0034
    CHARGE:  cpu time    0.1766: real time    0.1778
    MIXING:  cpu time    0.0027: real time    0.0027
    --------------------------------------------
      LOOP:  cpu time    1.9589: real time    1.9819

 eigenvalue-minimisations  :  1055
 total energy-change (2. order) :-0.3256429E+00  (-0.8003259E-02)
 number of electron       2.0000000 magnetization 
 augmentation part        0.0165600 magnetization 

 Broyden mixing:
  rms(total) = 0.10944E-01    rms(broyden)= 0.10944E-01
  rms(prec ) = 0.24669E-01
  weight for this iteration     100.00

 eigenvalues of (default mixing * dielectric matrix)
  average eigenvalue GAMMA=   0.9815
  0.9815

 Free energy of the ion-electron system (eV)
  ---------------------------------------------------
  alpha Z        PSCENC =        -1.04353988
  Ewald energy   TEWEN  =       -12.23825003
  -Hartree energ DENC   =        -0.01276482
  -exchange      EXHF   =         0.00000000
  -V(xc)+E(xc)   XCENC  =       -71.48775852
  PAW double counting   =        74.69616571       -1.23489038
  entropy T*S    EENTRO =        -0.00093021
  eigenvalues    EBANDS =        -1.92256376
  atomic energy  EATOM  =        10.38177359
  Solvation  Ediel_sol  =         0.00000000
  ---------------------------------------------------
  free energy    TOTEN  =        -2.86275831 eV

  energy without entropy =       -2.86182810  energy(sigma->0) =       -2.86244824


--------------------------------------------------------------------------------------------------------




--------------------------------------- Iteration      1(   3)  ---------------------------------------


    POTLOK:  cpu time    0.0200: real time    0.0203
    SETDIJ:  cpu time    0.0032: real time    0.0033
     EDDAV:  cpu time    1.7286: real time    1.7416
       DOS:  cpu time    0.0033: real time    0.0034
    CHARGE:  cpu time    0.1810: real time    0.1822
    MIXING:  cpu time    0.0026: real time    0.0026
    --------------------------------------------
      LOOP:  cpu time    1.9387: real time    1.9533

 eigenvalue-minimisations  :  1025
 total energy-change (2. order) : 0.1302527E-02  (-0.1048015E-03)
 number of electron       2.0000000 magnetization 
 augmentation part        0.0167088 magnetization 

 Broyden mixing:
  rms(total) = 0.50475E-02    rms(broyden)= 0.50475E-02
  rms(prec ) = 0.11829E-01
  weight for this iteration     100.00

 eigenvalues of (default mixing * dielectric matrix)
  average eigenvalue GAMMA=   1.8948
  1.0144  2.7751

 Free energy of the ion-electron system (eV)
  ---------------------------------------------------
  alpha Z        PSCENC =        -1.04353988
  Ewald energy   TEWEN  =       -12.23825003
  -Hartree energ DENC   =        -0.01672937
  -exchange      EXHF   =         0.00000000
  -V(xc)+E(xc)   XCENC  =       -71.47281793
  PAW double counting   =        75.83857665       -2.38106516
  entropy T*S    EENTRO =        -0.00093698
  eigenvalues    EBANDS =        -1.92846666
  atomic energy  EATOM  =        10.38177359
  Solvation  Ediel_sol  =         0.00000000
  ---------------------------------------------------
  free energy    TOTEN  =        -2.86145578 eV

  energy without entropy =       -2.86051880  energy(sigma->0) =       -2.86114345


--------------------------------------------------------------------------------------------------------




--------------------------------------- Iteration      1(   4)  ---------------------------------------


    POTLOK:  cpu time    0.0205: real time    0.0207
    SETDIJ:  cpu time    0.0030: real time    0.0030
     EDDAV:  cpu time    1.3894: real time    1.3999
       DOS:  cpu time    0.0034: real time    0.0035
    CHARGE:  cpu time    0.1771: real time    0.1782
    MIXING:  cpu time    0.0027: real time    0.0027
    --------------------------------------------
      LOOP:  cpu time    1.5961: real time    1.6080

 eigenvalue-minimisations  :   775
 total energy-change (2. order) : 0.3018604E-03  (-0.6029681E-05)
 number of electron       2.0000000 magnetization 
 augmentation part        0.0166891 magnetization 

 Broyden mixing:
  rms(total) = 0.51523E-03    rms(broyden)= 0.51523E-03
  rms(prec ) = 0.87929E-03
  weight for this iteration     100.00

 eigenvalues of (default mixing * dielectric matrix)
  average eigenvalue GAMMA=   2.4581
  1.0357  3.7663  2.5723

 Free energy of the ion-electron system (eV)
  ---------------------------------------------------
  alpha Z        PSCENC =        -1.04353988
  Ewald energy   TEWEN  =       -12.23825003
  -Hartree energ DENC   =        -0.02071545
  -exchange      EXHF   =         0.00000000
  -V(xc)+E(xc)   XCENC  =       -71.45945223
  PAW double counting   =        77.06254538       -3.60848973
  entropy T*S    EENTRO =        -0.00093790
  eigenvalues    EBANDS =        -1.93408766
  atomic energy  EATOM  =        10.38177359
  Solvation  Ediel_sol  =         0.00000000
  ---------------------------------------------------
  free energy    TOTEN  =        -2.86115392 eV

  energy without entropy =       -2.86021602  energy(sigma->0) =       -2.86084128


--------------------------------------------------------------------------------------------------------




--------------------------------------- Iteration      1(   5)  ---------------------------------------


    POTLOK:  cpu time    0.0189: real time    0.0191
    SETDIJ:  cpu time    0.0029: real time    0.0030
     EDDAV:  cpu time    0.9668: real time    0.9720
       DOS:  cpu time    0.0032: real time    0.0032
    --------------------------------------------
      LOOP:  cpu time    0.9919: real time    0.9973

 eigenvalue-minimisations  :   450
 total energy-change (2. order) : 0.6088848E-05  (-0.3298786E-06)
 number of electron       2.0000000 magnetization 
 augmentation part        0.0166891 magnetization 

 Free energy of the ion-electron system (eV)
  ---------------------------------------------------
  alpha Z        PSCENC =        -1.04353988
  Ewald energy   TEWEN  =       -12.23825003
  -Hartree energ DENC   =        -0.02099761
  -exchange      EXHF   =         0.00000000
  -V(xc)+E(xc)   XCENC  =       -71.45858286
  PAW double counting   =        76.94216848       -3.48767866
  entropy T*S    EENTRO =        -0.00093790
  eigenvalues    EBANDS =        -1.93510295
  atomic energy  EATOM  =        10.38177359
  Solvation  Ediel_sol  =         0.00000000
  ---------------------------------------------------
  free energy    TOTEN  =        -2.86114783 eV

  energy without entropy =       -2.86020993  energy(sigma->0) =       -2.86083520


--------------------------------------------------------------------------------------------------------




 average (electrostatic) potential at core
  the test charge radii are     1.1212
  (the norm of the test charge is              1.0000)
       1 -44.6917       2 -44.6917



 E-fermi :   0.2915     XC(G=0):  -6.2966     alpha+bet : -4.6460

 Fermi energy:         0.2914805093

 k-point     1 :       0.0000    0.0000    0.0000
  band No.  band energies     occupation 
      1      -2.8823      2.00000
      2       4.7704     -0.00000
      3       4.7704     -0.00000
      4       4.9070     -0.00000
      5       4.9070     -0.00000

 k-point     2 :       0.0769    0.0000    0.0000
  band No.  band energies     occupation 
      1      -2.8324      2.00000
      2       3.8506     -0.00000
      3       4.8188     -0.00000
      4       4.9487     -0.00000
      5       4.9487     -0.00000

 k-point     3 :       0.1538    0.0000    0.0000
  band No.  band energies     occupation 
      1      -2.6830      2.00000
      2       2.8608     -0.00000
      3       4.9638     -0.00000
      4       5.0736     -0.00000
      5       5.0736     -0.00000

 k-point     4 :       0.2308    0.0000    0.0000
  band No.  band energies     occupation 
      1      -2.4347      2.00000
      2       1.9157     -0.00000
      3       5.2054     -0.00000
      4       5.2821     -0.00000
      5       5.2821     -0.00000

 k-point     5 :       0.3077    0.0000    0.0000
  band No.  band energies     occupation 
      1      -2.0886      2.00000
      2       1.0373     -0.00000
      3       5.5437     -0.00000
      4       5.5745     -0.00000
      5       5.5745     -0.00000

 k-point     6 :       0.3846    0.0000    0.0000
  band No.  band energies     occupation 
      1      -1.6462      2.00000
      2       0.2362      1.44826
      3       5.9513      0.00000
      4       5.9513      0.00000
      5       5.9785      0.00000

 k-point     7 :       0.4615    0.0000    0.0000
  band No.  band energies     occupation 
      1      -1.1094      2.00000
      2      -0.4808      2.00000
      3       6.4130      0.00000
      4       6.4130      0.00000
      5       6.5098      0.00000

 k-point     8 :       0.0769    0.0769    0.0000
  band No.  band energies     occupation 
      1      -2.7826      2.00000
      2       3.7559     -0.00000
      3       4.0849     -0.00000
      4       4.9903     -0.00000
      5       5.3812     -0.00000

 k-point     9 :       0.1538    0.0769    0.0000
  band No.  band energies     occupation 
      1      -2.6333      2.00000
      2       2.8946     -0.00000
      3       4.0965     -0.00000
      4       5.1152     -0.00000
      5       5.5781     -0.00000

 k-point    10 :       0.2308    0.0769    0.0000
  band No.  band energies     occupation 
      1      -2.3852      2.00000
      2       1.9592     -0.00000
      3       4.3131     -0.00000
      4       5.3238     -0.00000
      5       5.8257      0.00000

 k-point    11 :       0.3077    0.0769    0.0000
  band No.  band energies     occupation 
      1      -2.0393      2.00000
      2       1.0834     -0.00000
      3       4.6263     -0.00000
      4       5.6162     -0.00000
      5       6.1594      0.00000

 k-point    12 :       0.3846    0.0769    0.0000
  band No.  band energies     occupation 
      1      -1.5972      2.00000
      2       0.2836      1.06691
      3       5.0303     -0.00000
      4       5.9930      0.00000
      5       6.5833      0.00000

 k-point    13 :       0.4615    0.0769    0.0000
  band No.  band energies     occupation 
      1      -1.0608      2.00000
      2      -0.4328      2.00000
      3       5.5233     -0.00000
      4       6.1042      0.00000
      5       6.4546      0.00000

 k-point    14 :       0.1538    0.1538    0.0000
  band No.  band energies     occupation 
      1      -2.4843      2.00000
      2       2.8580     -0.00000
      3       3.2838     -0.00000
      4       5.2402     -0.00000
      5       5.8338      0.00000

 k-point    15 :       0.2308    0.1538    0.0000
  band No.  band energies     occupation 
      1      -2.2368      2.00000
      2       2.0826     -0.00000
      3       3.3421     -0.00000
      4       5.4488     -0.00000
      5       7.3973      0.00000

 k-point    16 :       0.3077    0.1538    0.0000
  band No.  band energies     occupation 
      1      -1.8917      2.00000
      2       1.2206     -0.00000
      3       3.6450     -0.00000
      4       5.7412     -0.00000
      5       6.4543      0.00000

 k-point    17 :       0.3846    0.1538    0.0000
  band No.  band energies     occupation 
      1      -1.4505      2.00000
      2       0.4251      0.10358
      3       4.0495     -0.00000
      4       6.1181      0.00000
      5       6.8902      0.00000

 k-point    18 :       0.4615    0.1538    0.0000
  band No.  band energies     occupation 
      1      -0.9154      2.00000
      2      -0.2889      2.00032
      3       4.5460     -0.00000
      4       5.1315     -0.00000
      5       6.5797      0.00000

 k-point    19 :       0.2308    0.2308    0.0000
  band No.  band energies     occupation 
      1      -1.9901      2.00000
      2       2.1406     -0.00000
      3       2.5705     -0.00000
      4       5.6574     -0.00000
      5       6.4848      0.00000

 k-point    20 :       0.3077    0.2308    0.0000
  band No.  band energies     occupation 
      1      -1.6462      2.00000
      2       1.4409     -0.00000
      3       2.7164     -0.00000
      4       5.6432     -0.00000
      5       5.9498      0.00000

 k-point    21 :       0.3846    0.2308    0.0000
  band No.  band energies     occupation 
      1      -1.2067      2.00000
      2       0.6590     -0.02607
      3       3.1139     -0.00000
      4       4.8812     -0.00000
      5       6.3266      0.00000

 k-point    22 :       0.4615    0.2308    0.0000
  band No.  band energies     occupation 
      1      -0.6737      2.00000
      2      -0.0502      2.03637
      3       3.6130     -0.00000
      4       6.7881      0.00000
      5       7.6920      0.00000

 k-point    23 :       0.3077    0.3077    0.0000
  band No.  band energies     occupation 
      1      -1.3042      2.00000
      2       1.6034     -0.00000
      3       2.0067     -0.00000
      4       6.2422      0.00000
      5       7.0890      0.00000

 k-point    24 :       0.3846    0.3077    0.0000
  band No.  band energies     occupation 
      1      -0.8671      2.00000
      2       0.9778     -0.00001
      3       2.2558     -0.00000
      4       6.6187      0.00000
      5       7.5195      0.00000

 k-point    25 :       0.4615    0.3077    0.0000
  band No.  band energies     occupation 
      1      -0.3373      2.00008
      2       0.2812      1.08666
      3       2.7507     -0.00000
      4       3.3449     -0.00000
      5       7.0794      0.00000

 k-point    26 :       0.3846    0.3846    0.0000
  band No.  band energies     occupation 
      1      -0.4333      2.00000
      2       1.2457     -0.00000
      3       1.6199     -0.00000
      4       3.2546     -0.00000
      5       6.9942      0.00000

 k-point    27 :       0.4615    0.3846    0.0000
  band No.  band energies     occupation 
      1       0.0914      2.05037
      2       0.6980     -0.01437
      3       1.9752     -0.00000
      4       2.5670     -0.00000
      5       7.4520      0.00000

 k-point    28 :       0.4615    0.4615    0.0000
  band No.  band energies     occupation 
      1       0.6044     -0.04939
      2       1.0670     -0.00000
      3       1.4236     -0.00000
      4       1.8811     -0.00000
      5       7.8970      0.00000

 k-point    29 :       0.0769    0.0769    0.0769
  band No.  band energies     occupation 
      1      -2.7328      2.00000
      2       3.8010     -0.00000
      3       3.8010     -0.00000
      4       4.5006     -0.00000
      5       6.1490      0.00000

 k-point    30 :       0.1538    0.0769    0.0769
  band No.  band energies     occupation 
      1      -2.5836      2.00000
      2       2.9300     -0.00000
      3       3.9361     -0.00000
      4       4.5143     -0.00000
      5       6.2838      0.00000

 k-point    31 :       0.2308    0.0769    0.0769
  band No.  band energies     occupation 
      1      -2.3357      2.00000
      2       2.0027     -0.00000
      3       4.1612     -0.00000
      4       4.7173     -0.00000
      5       6.5088      0.00000

 k-point    32 :       0.3077    0.0769    0.0769
  band No.  band energies     occupation 
      1      -1.9901      2.00000
      2       1.1295     -0.00000
      3       4.4763     -0.00000
      4       5.0219     -0.00000
      5       6.8245      0.00000

 k-point    33 :       0.3846    0.0769    0.0769
  band No.  band energies     occupation 
      1      -1.5483      2.00000
      2       0.3308      0.67401
      3       4.8811     -0.00000
      4       5.4165     -0.00000
      5       6.6322      0.00000

 k-point    34 :       0.4615    0.0769    0.0769
  band No.  band energies     occupation 
      1      -1.0123      2.00000
      2      -0.3848      2.00002
      3       5.3756     -0.00000
      4       5.8969      0.00000
      5       5.9594      0.00000

 k-point    35 :       0.1538    0.1538    0.0769
  band No.  band energies     occupation 
      1      -2.4348      2.00000
      2       2.9029     -0.00000
      3       3.2842     -0.00000
      4       4.4668     -0.00000
      5       6.6848      0.00000

 k-point    36 :       0.2308    0.1538    0.0769
  band No.  band energies     occupation 
      1      -2.1874      2.00000
      2       2.1262     -0.00000
      3       3.3626     -0.00000
      4       4.6670     -0.00000
      5       7.4192      0.00000

 k-point    37 :       0.3077    0.1538    0.0769
  band No.  band energies     occupation 
      1      -1.8425      2.00000
      2       1.2665     -0.00000
      3       3.6673     -0.00000
      4       4.9732     -0.00000
      5       6.5817      0.00000

 k-point    38 :       0.3846    0.1538    0.0769
  band No.  band energies     occupation 
      1      -1.4017      2.00000
      2       0.4722     -0.02400
      3       4.0715     -0.00000
      4       5.3710     -0.00000
      5       5.8245      0.00000

 k-point    39 :       0.4615    0.1538    0.0769
  band No.  band energies     occupation 
      1      -0.8670      2.00000
      2      -0.2411      2.00109
      3       4.5673     -0.00000
      4       5.1523     -0.00000
      5       5.8557      0.00000

 k-point    40 :       0.2308    0.2308    0.0769
  band No.  band energies     occupation 
      1      -1.9409      2.00000
      2       2.1854     -0.00000
      3       2.6077     -0.00000
      4       4.8674     -0.00000
      5       6.5181      0.00000

 k-point    41 :       0.3077    0.2308    0.0769
  band No.  band energies     occupation 
      1      -1.5973      2.00000
      2       1.4863     -0.00000
      3       2.7567     -0.00000
      4       5.1730     -0.00000
      5       5.6794     -0.00000

 k-point    42 :       0.3846    0.2308    0.0769
  band No.  band energies     occupation 
      1      -1.1581      2.00000
      2       0.7058     -0.01261
      3       3.1540     -0.00000
      4       4.9187     -0.00000
      5       5.5695     -0.00000

 k-point    43 :       0.4615    0.2308    0.0769
  band No.  band energies     occupation 
      1      -0.6255      2.00000
      2      -0.0026      2.05790
      3       3.6524     -0.00000
      4       4.2419     -0.00000
      5       6.0523      0.00000

 k-point    44 :       0.3077    0.3077    0.0769
  band No.  band energies     occupation 
      1      -1.2555      2.00000
      2       1.6480     -0.00000
      3       2.0519     -0.00000
      4       4.8362     -0.00000
      5       5.4766     -0.00000

 k-point    45 :       0.3846    0.3077    0.0769
  band No.  band energies     occupation 
      1      -0.8187      2.00000
      2       1.0240     -0.00000
      3       2.3006     -0.00000
      4       4.0702     -0.00000
      5       5.8701      0.00000

 k-point    46 :       0.4615    0.3077    0.0769
  band No.  band energies     occupation 
      1      -0.2894      2.00032
      2       0.3284      0.69302
      3       2.7947     -0.00000
      4       3.3880     -0.00000
      5       6.3482      0.00000

 k-point    47 :       0.3846    0.3846    0.0769
  band No.  band energies     occupation 
      1      -0.3853      2.00002
      2       1.2903     -0.00000
      3       1.6676     -0.00000
      4       3.2986     -0.00000
      5       6.2585      0.00000

 k-point    48 :       0.4615    0.3846    0.0769
  band No.  band energies     occupation 
      1       0.1388      1.96020
      2       0.7446     -0.00619
      3       2.0214     -0.00000
      4       2.6121     -0.00000
      5       6.7263      0.00000

 k-point    49 :       0.4615    0.4615    0.0769
  band No.  band energies     occupation 
      1       0.6511     -0.02901
      2       1.1115     -0.00000
      3       1.4722     -0.00000
      4       1.9276     -0.00000
      5       7.1628      0.00000

 k-point    50 :       0.1538    0.1538    0.1538
  band No.  band energies     occupation 
      1      -2.2862      2.00000
      2       3.0374     -0.00000
      3       3.0374     -0.00000
      4       3.8444     -0.00000
      5       7.7295      0.00000

 k-point    51 :       0.2308    0.1538    0.1538
  band No.  band energies     occupation 
      1      -2.0394      2.00000
      2       2.2511     -0.00000
      3       3.2617     -0.00000
      4       3.9084     -0.00000
      5       7.3464      0.00000

 k-point    52 :       0.3077    0.1538    0.1538
  band No.  band energies     occupation 
      1      -1.6953      2.00000
      2       1.4028     -0.00000
      3       3.5757     -0.00000
      4       4.1985     -0.00000
      5       6.4945      0.00000

 k-point    53 :       0.3846    0.1538    0.1538
  band No.  band energies     occupation 
      1      -1.2554      2.00000
      2       0.6130     -0.04543
      3       3.9797     -0.00000
      4       4.5995     -0.00000
      5       6.3208      0.00000

 k-point    54 :       0.4615    0.1538    0.1538
  band No.  band energies     occupation 
      1      -0.7220      2.00000
      2      -0.0978      2.01895
      3       4.4735     -0.00000
      4       5.0924     -0.00000
      5       5.6689     -0.00000

 k-point    55 :       0.2308    0.2308    0.1538
  band No.  band energies     occupation 
      1      -1.7934      2.00000
      2       2.3195     -0.00000
      3       2.6920     -0.00000
      4       3.9137     -0.00000
      5       6.6020      0.00000

 k-point    56 :       0.3077    0.2308    0.1538
  band No.  band energies     occupation 
      1      -1.4506      2.00000
      2       1.6216     -0.00000
      3       2.8632     -0.00000
      4       4.2004     -0.00000
      5       5.7747      0.00000

 k-point    57 :       0.3846    0.2308    0.1538
  band No.  band energies     occupation 
      1      -1.0124      2.00000
      2       0.8456     -0.00064
      3       3.2606     -0.00000
      4       4.5994     -0.00000
      5       5.0175     -0.00000

 k-point    58 :       0.4615    0.2308    0.1538
  band No.  band energies     occupation 
      1      -0.4812      2.00000
      2       0.1399      1.95686
      3       3.7568     -0.00000
      4       4.3435     -0.00000
      5       5.0905     -0.00000

 k-point    59 :       0.3077    0.3077    0.1538
  band No.  band energies     occupation 
      1      -1.1096      2.00000
      2       1.7820     -0.00000
      3       2.1824     -0.00000
      4       4.4855     -0.00000
      5       4.9524     -0.00000

 k-point    60 :       0.3846    0.3077    0.1538
  band No.  band energies     occupation 
      1      -0.6739      2.00000
      2       1.1621     -0.00000
      3       2.4320     -0.00000
      4       4.1929     -0.00000
      5       4.8807     -0.00000

 k-point    61 :       0.4615    0.3077    0.1538
  band No.  band energies     occupation 
      1      -0.1461      2.00833
      2       0.4698     -0.01980
      3       2.9240     -0.00000
      4       3.5145     -0.00000
      5       5.3654     -0.00000

 k-point    62 :       0.3846    0.3846    0.1538
  band No.  band energies     occupation 
      1      -0.2417      2.00107
      2       1.4241     -0.00000
      3       1.8091     -0.00000
      4       3.4289     -0.00000
      5       5.2693     -0.00000

 k-point    63 :       0.4615    0.3846    0.1538
  band No.  band energies     occupation 
      1       0.2807      1.09070
      2       0.8838     -0.00023
      3       2.1588     -0.00000
      4       2.7464     -0.00000
      5       5.7410     -0.00000

 k-point    64 :       0.4615    0.4615    0.1538
  band No.  band energies     occupation 
      1       0.7907     -0.00236
      2       1.2452     -0.00000
      3       1.6170     -0.00000
      4       2.0663     -0.00000
      5       6.1738      0.00000

 k-point    65 :       0.2308    0.2308    0.2308
  band No.  band energies     occupation 
      1      -1.5484      2.00000
      2       2.5433     -0.00000
      3       2.5433     -0.00000
      4       3.3446     -0.00000
      5       6.6251      0.00000

 k-point    66 :       0.3077    0.2308    0.2308
  band No.  band energies     occupation 
      1      -1.2068      2.00000
      2       1.8398     -0.00000
      3       2.8566     -0.00000
      4       3.4986     -0.00000
      5       6.2401      0.00000

 k-point    67 :       0.3846    0.2308    0.2308
  band No.  band energies     occupation 
      1      -0.7705      2.00000
      2       1.0765     -0.00000
      3       3.2598     -0.00000
      4       3.8843     -0.00000
      5       5.5960     -0.00000

 k-point    68 :       0.4615    0.2308    0.2308
  band No.  band energies     occupation 
      1      -0.2415      2.00107
      2       0.3763      0.34862
      3       3.7529     -0.00000
      4       4.3780     -0.00000
      5       4.9556     -0.00000

 k-point    69 :       0.3077    0.3077    0.2308
  band No.  band energies     occupation 
      1      -0.8672      2.00000
      2       2.0053     -0.00000
      3       2.3657     -0.00000
      4       3.5924     -0.00000
      5       5.1219     -0.00000

 k-point    70 :       0.3846    0.3077    0.2308
  band No.  band energies     occupation 
      1      -0.4334      2.00000
      2       1.3904     -0.00000
      3       2.6321     -0.00000
      4       3.9708     -0.00000
      5       4.3788     -0.00000

 k-point    71 :       0.4615    0.3077    0.2308
  band No.  band energies     occupation 
      1       0.0920      2.04976
      2       0.7041     -0.01296
      3       3.1215     -0.00000
      4       3.7071     -0.00000
      5       4.4569     -0.00000

 k-point    72 :       0.3846    0.3846    0.2308
  band No.  band energies     occupation 
      1      -0.0032      2.05763
      2       1.6472     -0.00000
      3       2.0364     -0.00000
      4       3.6387     -0.00000
      5       4.3421     -0.00000

 k-point    73 :       0.4615    0.3846    0.2308
  band No.  band energies     occupation 
      1       0.5163     -0.06736
      2       1.1148     -0.00000
      3       2.3825     -0.00000
      4       2.9647     -0.00000
      5       4.8136     -0.00000

 k-point    74 :       0.4615    0.4615    0.2308
  band No.  band energies     occupation 
      1       1.0224     -0.00000
      2       1.4682     -0.00000
      3       1.8538     -0.00000
      4       2.2941     -0.00000
      5       5.2429     -0.00000

 k-point    75 :       0.3077    0.3077    0.3077
  band No.  band energies     occupation 
      1      -0.5295      2.00000
      2       2.3182     -0.00000
      3       2.3182     -0.00000
      4       3.0997     -0.00000
      5       5.2314     -0.00000

 k-point    76 :       0.3846    0.3077    0.3077
  band No.  band energies     occupation 
      1      -0.0985      2.01875
      2       1.7013     -0.00000
      3       2.7208     -0.00000
      4       3.3482     -0.00000
      5       4.9403     -0.00000

 k-point    77 :       0.4615    0.3077    0.3077
  band No.  band energies     occupation 
      1       0.4230      0.11170
      2       1.0289     -0.00000
      3       3.2133     -0.00000
      4       3.8199     -0.00000
      5       4.3773     -0.00000

 k-point    78 :       0.3846    0.3846    0.3077
  band No.  band energies     occupation 
      1       0.3286      0.69149
      2       1.9597     -0.00000
      3       2.3155     -0.00000
      4       3.5318     -0.00000
      5       3.9041     -0.00000

 k-point    79 :       0.4615    0.3846    0.3077
  band No.  band energies     occupation 
      1       0.8438     -0.00067
      2       1.4350     -0.00000
      3       2.6734     -0.00000
      4       3.2485     -0.00000
      5       3.9863     -0.00000

 k-point    80 :       0.4615    0.4615    0.3077
  band No.  band energies     occupation 
      1       1.3443     -0.00000
      2       1.7806     -0.00000
      3       2.1720     -0.00000
      4       2.6027     -0.00000
      5       4.3979     -0.00000

 k-point    81 :       0.3846    0.3846    0.3846
  band No.  band energies     occupation 
      1       0.7513     -0.00542
      2       2.3619     -0.00000
      3       2.3619     -0.00000
      4       3.1226     -0.00000
      5       4.1084     -0.00000

 k-point    82 :       0.4615    0.3846    0.3846
  band No.  band energies     occupation 
      1       1.2595     -0.00000
      2       1.8362     -0.00000
      3       2.8540     -0.00000
      4       3.4401     -0.00000
      5       3.9020     -0.00000

 k-point    83 :       0.4615    0.4615    0.3846
  band No.  band energies     occupation 
      1       1.7524     -0.00000
      2       2.1826     -0.00000
      3       2.5346     -0.00000
      4       2.9645     -0.00000
      5       3.6651     -0.00000

 k-point    84 :       0.4615    0.4615    0.4615
  band No.  band energies     occupation 
      1       2.2333     -0.00000
      2       2.6745     -0.00000
      3       2.6745     -0.00000
      4       3.2525     -0.00000
      5       3.2564     -0.00000


--------------------------------------------------------------------------------------------------------


 soft charge-density along one line, spin component           1
         0         1         2         3         4         5         6         7         8         9
 total charge-density along one line

 pseudopotential strength for first ion, spin component:           1
  1.490   6.627   0.000   0.000   0.000
  6.627  28.937   0.000   0.000   0.000
  0.000   0.000   4.655  -0.000   0.000
  0.000   0.000  -0.000   4.655  -0.000
  0.000   0.000   0.000  -0.000   4.655
 total augmentation occupancy for first ion, spin component:           1
  0.800   0.006   0.000   0.000   0.000
  0.006   0.000   0.000   0.000   0.000
  0.000   0.000   0.014  -0.000  -0.000
  0.000  -0.000  -0.000   0.014  -0.000
  0.000   0.000  -0.000  -0.000   0.014


------------------------ aborting loop because EDIFF is reached ----------------------------------------


    CHARGE:  cpu time    0.1807: real time    0.1814
    FORLOC:  cpu time    0.0035: real time    0.0035
    FORNL :  cpu time    0.1217: real time    0.1223
    STRESS:  cpu time    0.9190: real time    0.9211
    FORCOR:  cpu time    0.0227: real time    0.0227
    FORHAR:  cpu time    0.0202: real time    0.0203
    MIXING:  cpu time    0.0026: real time    0.0026
    OFIELD:  cpu time    0.0000: real time    0.0000

  FORCE on cell =-STRESS in cart. coord.  units (eV):
  Direction    XX          YY          ZZ          XY          YZ          ZX
  --------------------------------------------------------------------------------------
  Alpha Z    -1.04354    -1.04354    -1.04354
  Ewald      -4.07942    -4.07942    -4.07942    -0.00000    -0.00000     0.00000
  Hartree     0.00699     0.00699     0.00699    -0.00000    -0.00000    -0.00000
  E(xc)      -4.16132    -4.16132    -4.16132    -0.00000     0.00000    -0.00000
  Local       0.77278     0.77278     0.77278     0.00000     0.00000     0.00000
  n-local     4.80491     4.78118     4.76238     0.01986     0.00701     0.00747
  augment     0.20628     0.20628     0.20628     0.00000    -0.00000     0.00000
  Kinetic     5.61718     2.27991     1.00794     1.80276     0.74506     0.82158
  Fock        0.00000     0.00000     0.00000     0.00000     0.00000     0.00000
  -------------------------------------------------------------------------------------
  Total      -0.54705    -0.54705    -0.54705     0.00000     0.00000     0.00000
  in kB     -11.16348   -11.16348   -11.16348     0.00000     0.00000     0.00000
  external pressure =      -11.16 kB  Pullay stress =        0.00 kB


 VOLUME and BASIS-vectors are now :
 -----------------------------------------------------------------------------
  energy-cutoff  :      500.00
  volume of cell :       78.51
      direct lattice vectors                 reciprocal lattice vectors
     4.282000065  0.000000000  0.000000000     0.233535727  0.000000000  0.000000000
     0.000000000  4.282000065  0.000000000     0.000000000  0.233535727  0.000000000
     0.000000000  0.000000000  4.282000065     0.000000000  0.000000000  0.233535727

  length of vectors
     4.282000065  4.282000065  4.282000065     0.233535727  0.233535727  0.233535727


 FORCES acting on ions
    electron-ion (+dipol)            ewald-force                    non-local-force                 convergence-correction
 -----------------------------------------------------------------------------------------------
   0.302E-11 0.302E-11 0.302E-11   -.307E-09 -.307E-09 -.307E-09   0.492E-25 0.230E-24 0.198E-24   -.102E-13 -.102E-13 -.102E-13
   -.137E-08 -.137E-08 -.137E-08   0.307E-09 0.307E-09 0.307E-09   -.539E-26 0.189E-24 -.168E-25   -.160E-13 -.160E-13 -.160E-13
 -----------------------------------------------------------------------------------------------
   -.137E-08 -.137E-08 -.137E-08   0.108E-16 0.436E-17 0.174E-18   0.438E-25 0.419E-24 0.181E-24   -.262E-13 -.262E-13 -.262E-13


 POSITION                                       TOTAL-FORCE (eV/Angst)
 -----------------------------------------------------------------------------------
      0.00000      0.00000      0.00000         0.000000     -0.000000     -0.000000
      2.14100      2.14100      2.14100        -0.000000      0.000000      0.000000
 -----------------------------------------------------------------------------------
    total drift:                               -0.000000     -0.000000     -0.000000


--------------------------------------------------------------------------------------------------------



  FREE ENERGIE OF THE ION-ELECTRON SYSTEM (eV)
  ---------------------------------------------------
  free  energy   TOTEN  =        -2.86114783 eV

  energy  without entropy=       -2.86020993  energy(sigma->0) =       -2.86083520



--------------------------------------------------------------------------------------------------------


    POTLOK:  cpu time    0.0230: real time    0.0231


--------------------------------------------------------------------------------------------------------




--------------------------------------------------------------------------------------------------------


    WAVPRE:  cpu time    0.1489: real time    3.9673
    FEWALD:  cpu time    0.0002: real time    0.0002
    GENKIN:  cpu time    0.0222: real time    0.0224
    ORTHCH:  cpu time    0.0340: real time    0.0342
     LOOP+:  cpu time   10.0464: real time   14.3142


--------------------------------------- Iteration      2(   1)  ---------------------------------------


    POTLOK:  cpu time    0.0197: real time    0.0198
    SETDIJ:  cpu time    0.0030: real time    0.0030
     EDDAV:  cpu time    1.5721: real time    1.5807
       DOS:  cpu time    0.0031: real time    0.0032
    CHARGE:  cpu time    0.1734: real time    0.1743
    MIXING:  cpu time    0.0026: real time    0.0026
    --------------------------------------------
      LOOP:  cpu time    1.7740: real time    1.7837

 eigenvalue-minimisations  :   950
 total energy-change (2. order) :-0.1944556E-01  (-0.1614837E-02)
 number of electron       2.0000000 magnetization 
 augmentation part        0.0177700 magnetization 

 Broyden mixing:
  rms(total) = 0.24173E-02    rms(broyden)= 0.24173E-02
  rms(prec ) = 0.65723E-02
  weight for this iteration     100.00

 Free energy of the ion-electron system (eV)
  ---------------------------------------------------
  alpha Z        PSCENC =        -1.08596509
  Ewald energy   TEWEN  =       -12.40190095
  -Hartree energ DENC   =        -0.02124126
  -exchange      EXHF   =         0.00000000
  -V(xc)+E(xc)   XCENC  =       -71.44828483
  PAW double counting   =        76.88057444       -3.42589281
  entropy T*S    EENTRO =        -0.00090893
  eigenvalues    EBANDS =        -1.75875365
  atomic energy  EATOM  =        10.38177359
  Solvation  Ediel_sol  =         0.00000000
  ---------------------------------------------------
  free energy    TOTEN  =        -2.88059948 eV

  energy without entropy =       -2.87969055  energy(sigma->0) =       -2.88029650


--------------------------------------------------------------------------------------------------------




--------------------------------------- Iteration      2(   2)  ---------------------------------------


    POTLOK:  cpu time    0.0197: real time    0.0198
    SETDIJ:  cpu time    0.0030: real time    0.0031
     EDDAV:  cpu time    1.6152: real time    1.6237
       DOS:  cpu time    0.0032: real time    0.0032
    --------------------------------------------
[...]

 k-point    34 :       0.4615    0.0769    0.0769
  band No.  band energies     occupation 
      1      -0.6320      2.00000
      2       0.0634      2.00000
      3       6.3378      0.00000
      4       6.9814      0.00000
      5       7.0709      0.00000

 k-point    35 :       0.1538    0.1538    0.0769
  band No.  band energies     occupation 
      1      -2.2163      2.00000
      2       3.6245     -0.00000
      3       4.1068     -0.00000
      4       5.5112     -0.00000
      5       7.8179      0.00000

 k-point    36 :       0.2308    0.1538    0.0769
  band No.  band energies     occupation 
      1      -1.9400      2.00000
      2       2.8094     -0.00000
      3       4.1805     -0.00000
      4       5.7152     -0.00000
      5       8.1920      0.00000

 k-point    37 :       0.3077    0.1538    0.0769
  band No.  band energies     occupation 
      1      -1.5554      2.00000
      2       1.8785     -0.00000
      3       4.5100     -0.00000
      4       6.0439     -0.00000
      5       7.7047      0.00000

 k-point    38 :       0.3846    0.1538    0.0769
  band No.  band energies     occupation 
      1      -1.0646      2.00000
      2       1.0084     -0.04820
      3       4.9518     -0.00000
      4       6.4742      0.00000
      5       6.8740      0.00000

 k-point    39 :       0.4615    0.1538    0.0769
  band No.  band energies     occupation 
      1      -0.4707      2.00000
      2       0.2222      2.00026
      3       5.4951     -0.00000
      4       6.1366     -0.00000
      5       6.9988      0.00000

 k-point    40 :       0.2308    0.2308    0.0769
  band No.  band energies     occupation 
      1      -1.6650      2.00000
      2       2.8423     -0.00000
      3       3.4082     -0.00000
      4       5.9194     -0.00000
      5       7.6457      0.00000

 k-point    41 :       0.3077    0.2308    0.0769
  band No.  band energies     occupation 
      1      -1.2822      2.00000
      2       2.1123     -0.00000
      3       3.5418     -0.00000
      4       6.2473     -0.00000
      5       6.7304      0.00000

 k-point    42 :       0.3846    0.2308    0.0769
  band No.  band energies     occupation 
      1      -0.7938      2.00000
      2       1.2640     -0.00613
      3       3.9693     -0.00000
      4       5.8987     -0.00000
      5       6.6759      0.00000

 k-point    43 :       0.4615    0.2308    0.0769
  band No.  band energies     occupation 
      1      -0.2032      2.00000
      2       0.4853      2.04382
      3       4.5131     -0.00000
      4       5.1580     -0.00000
      5       7.1979      0.00000

 k-point    44 :       0.3077    0.3077    0.0769
  band No.  band energies     occupation 
      1      -0.9020      2.00000
      2       2.2564     -0.00000
      3       2.8097     -0.00000
      4       5.8125     -0.00000
      5       6.5721      0.00000

 k-point    45 :       0.3846    0.3077    0.0769
  band No.  band energies     occupation 
      1      -0.4172      2.00000
      2       1.6073     -0.00000
      3       3.0477     -0.00000
      4       4.9758     -0.00000
      5       6.9959      0.00000

 k-point    46 :       0.4615    0.3077    0.0769
  band No.  band energies     occupation 
      1       0.1686      2.00006
      2       0.8492      0.67764
      3       3.5818     -0.00000
      4       4.2298     -0.00000
      5       7.5095      0.00000

 k-point    47 :       0.3846    0.3846    0.0769
  band No.  band energies     occupation 
      1       0.0626      2.00000
      2       1.8664     -0.00000
      3       2.3891     -0.00000
      4       4.1333     -0.00000
      5       7.4105      0.00000

 k-point    48 :       0.4615    0.3846    0.0769
  band No.  band energies     occupation 
      1       0.6404      2.00331
      2       1.3016     -0.00281
      3       2.7421     -0.00000
      4       3.3831     -0.00000
      5       7.9054      0.00000

 k-point    49 :       0.4615    0.4615    0.0769
  band No.  band energies     occupation 
      1       1.1993     -0.01904
      2       1.6716     -0.00000
      3       2.1736     -0.00000
      4       2.6391     -0.00000
      5       8.3449      0.00000

 k-point    50 :       0.1538    0.1538    0.1538
  band No.  band energies     occupation 
      1      -2.0504      2.00000
      2       3.7721     -0.00000
      3       3.7721     -0.00000
      4       4.9070     -0.00000
      5       8.9359      0.00000

 k-point    51 :       0.2308    0.1538    0.1538
  band No.  band energies     occupation 
      1      -1.7748      2.00000
      2       2.9406     -0.00000
      3       4.0181     -0.00000
      4       4.9522     -0.00000
      5       8.5039      0.00000

 k-point    52 :       0.3077    0.1538    0.1538
  band No.  band energies     occupation 
      1      -1.3913      2.00000
      2       2.0261     -0.00000
      3       4.3626     -0.00000
      4       5.2537     -0.00000
      5       7.5676      0.00000

 k-point    53 :       0.3846    0.1538    0.1538
  band No.  band energies     occupation 
      1      -0.9020      2.00000
      2       1.1629     -0.03181
      3       4.8058     -0.00000
      4       5.6842     -0.00000
      5       7.5359      0.00000

 k-point    54 :       0.4615    0.1538    0.1538
  band No.  band energies     occupation 
      1      -0.3100      2.00000
      2       0.3804      2.00957
      3       5.3478     -0.00000
      4       6.2163     -0.00000
      5       6.8375      0.00000

 k-point    55 :       0.2308    0.2308    0.1538
  band No.  band energies     occupation 
      1      -1.5006      2.00000
      2       2.9890     -0.00000
      3       3.4635     -0.00000
      4       4.9190     -0.00000
      5       7.7147      0.00000

 k-point    56 :       0.3077    0.2308    0.1538
  band No.  band energies     occupation 
      1      -1.1189      2.00000
      2       2.2589     -0.00000
      3       3.6364     -0.00000
      4       5.2118     -0.00000
      5       6.8148      0.00000

 k-point    57 :       0.3846    0.2308    0.1538
  band No.  band energies     occupation 
      1      -0.6321      2.00000
      2       1.4170     -0.00015
      3       4.0664     -0.00000
      4       5.6398     -0.00000
      5       5.9870     -0.00000

 k-point    58 :       0.4615    0.2308    0.1538
  band No.  band energies     occupation 
      1      -0.0434      2.00000
      2       0.6424      1.99912
      3       4.6079     -0.00000
      4       5.2495     -0.00000
      5       6.1699     -0.00000

 k-point    59 :       0.3077    0.3077    0.1538
  band No.  band energies     occupation 
      1      -0.7399      2.00000
      2       2.4026     -0.00000
      3       2.9426     -0.00000
      4       5.5024     -0.00000
      5       5.9284     -0.00000

 k-point    60 :       0.3846    0.3077    0.1538
  band No.  band energies     occupation 
      1      -0.2567      2.00000
      2       1.7579     -0.00000
      3       3.1854     -0.00000
      4       5.1016     -0.00000
      5       5.9247     -0.00000

 k-point    61 :       0.4615    0.3077    0.1538
  band No.  band energies     occupation 
      1       0.3269      2.00333
      2       1.0045     -0.04364
      3       3.7169     -0.00000
      4       4.3610     -0.00000
      5       6.4447      0.00000

 k-point    62 :       0.3846    0.3846    0.1538
  band No.  band energies     occupation 
      1       0.2213      2.00025
      2       2.0123     -0.00000
      3       2.5412     -0.00000
      4       4.2710     -0.00000
      5       6.3360      0.00000

 k-point    63 :       0.4615    0.3846    0.1538
  band No.  band energies     occupation 
      1       0.7966      1.11593
      2       1.4539     -0.00005
      3       2.8905     -0.00000
      4       3.5270     -0.00000
      5       6.8334      0.00000

 k-point    64 :       0.4615    0.4615    0.1538
  band       5       6.2484     -0.00000

 k-point    75 :       0.3077    0.3077    0.3077
  band No.  band energies     occupation 
      1      -0.0969      2.00000
      2       2.9883     -0.00000
      3       2.9883     -0.00000
      4       4.0874     -0.00000
      5       6.1777     -0.00000

 k-point    76 :       0.3846    0.3077    0.3077
  band No.  band energies     occupation 
      1       0.3794      2.00940
      2       2.3408     -0.00000
      3       3.4284     -0.00000
      4       4.3247     -0.00000
      5       5.9287     -0.00000

 k-point    77 :       0.4615    0.3077    0.3077
  band No.  band energies     occupation 
      1       0.9534      0.06973
      2       1.6161     -0.00000
      3       3.9671     -0.00000
      4       4.8136     -0.00000
      5       5.3879     -0.00000

 k-point    78 :       0.3846    0.3846    0.3077
  band No.  band energies     occupation 
      1       0.8498      0.67338
      2       2.5969     -0.00000
      3       3.0510     -0.00000
      4       4.4764     -0.00000
      5       4.7544     -0.00000

 k-point    79 :       0.4615    0.3846    0.3077
  band No.  band energies     occupation 
      1       1.4142     -0.00017
      2       2.0544     -0.00000
      3       3.4257     -0.00000
      4       4.0474     -0.00000
      5       4.9359     -0.00000

 k-point    80 :       0.4615    0.4615    0.3077
  band No.  band energies     occupation 
      1       1.9559     -0.00000
      2       2.4014     -0.00000
      3       2.9236     -0.00000
      4       3.3622     -0.00000
      5       5.3272     -0.00000

 k-point    81 :       0.3846    0.3846    0.3846
  band No.  band energies     occupation 
      1       1.3135     -0.00216
      2       3.0362     -0.00000
      3       3.0362     -0.00000
      4       4.0832     -0.00000
      5       4.9466     -0.00000

 k-point    82 :       0.4615    0.3846    0.3846
  band No.  band energies     occupation 
      1       1.8676     -0.00000
      2       2.4873     -0.00000
      3       3.5740     -0.00000
      4       4.3748     -0.00000
      5       4.7947     -0.00000

 k-point    83 :       0.4615    0.4615    0.3846
  band No.  band energies     occupation 
      1       2.3991     -0.00000
      2       2.8403     -0.00000
      3       3.2842     -0.00000
      4       3.7303     -0.00000
      5       4.5371     -0.00000

 k-point    84 :       0.4615    0.4615    0.4615
  band No.  band energies     occupation 
      1       2.9162     -0.00000
      2       3.3777     -0.00000
      3       3.3777     -0.00000
      4       4.0139     -0.00000
      5       4.0836     -0.00000


--------------------------------------------------------------------------------------------------------


 soft charge-density along o      5       6.2484     -0.00000

 k-point    75 :       0.3077    0.3077    0.3077
  band No.  band energies     occupation 
      1      -0.0969      2.00000
      2       2.9883     -0.00000
      3       2.9883     -0.00000
      4       4.0874     -0.00000
      5       6.1777     -0.00000

 k-point    76 :       0.3846    0.3077    0.3077
  band No.  band energies     occupation 
      1       0.3794      2.00940
      2       2.3408     -0.00000
      3       3.4284     -0.00000
      4       4.3247     -0.00000
      5       5.9287     -0.00000

 k-point    77 :       0.4615    0.3077    0.3077
  band No.  band energies     occupation 
      1       0.9534      0.06973
      2       1.6161     -0.00000
      3       3.9671     -0.00000
      4       4.8136     -0.00000
      5       5.3879     -0.00000

 k-point    78 :       0.3846    0.3846    0.3077
  band No.  band energies     occupation 
      1       0.8498      0.67338
      2       2.5969     -0.00000
      3       3.0510     -0.00000
      4       4.4764     -0.00000
      5       4.7544     -0.00000

 k-point    79 :       0.4615    0.3846    0.3077
  band No.  band energies     occupation 
      1       1.4142     -0.00017
      2       2.0544     -0.00000
      3       3.4257     -0.00000
      4       4.0474      Direction    XX          YY          ZZ          XY          YZ          ZX
  --------------------------------------------------------------------------------------
  Alpha Z    -1.22789    -1.22789    -1.22789
  Ewald      -4.30674    -4.30674    -4.30674    -0.00000    -0.00000    -0.00000
  Hartree     0.01065     0.01065     0.01065    -0.00000    -0.00000    -0.00000
  E(xc)      -4.48696    -4.48696    -4.48696    -0.00000    -0.00000     0.00000
  Local       0.94374     0.94374     0.94374    -0.00000    -0.00000    -0.00000
  n-local     5.49187     5.46095     5.43210     0.03311     0.01175     0.01245
  augment     0.25113     0.25113     0.25113     0.00000     0.00000     0.00000
  Kinetic     6.26994     2.59464     1.18405     2.00413     0.82262     0.91027
  Fock        0.00000     0.00000     0.00000     0.00000     0.00000     0.00000
  -------------------------------------------------------------------------------------
  Total      -0.00489    -0.00489    -0.00489    -0.00000    -0.00000    -0.00000
  in kB      -0.11740    -0.11740    -0.11740    -0.00000    -0.00000    -0.00000
  external pressure =       -0.12 kB  Pullay stress =        0.00 kB


 VOLUME and BASIS-vectors are now :
 -----------------------------------------------------------------------------
  energy-cutoff  :      500.00
  volume of cell :       66.73
      direct lattice vectors                 reciprocal lattice vectors
     4.055985270  0.000000000  0.000000000     0.246549219 -0.000000000 -0.000000000
     0.000000000  4.055985270  0.000000000     0.000000000  0.246549219 -0.000000000
     0.000000000  0.000000000  4.055985270    -0.000000000  0.000000000  0.246549219

  length of vectors
     4.055985270  4.055985270  4.055985270     0.246549219  0.246549219  0.246549219


 FORCES acting on ions
    electron-ion (+dipol)            ewald-force                    non-local-force                 convergence-correction
 -----------------------------------------------------------------------------------------------
   0.404E-11 0.404E-11 0.404E-11   -.343E-09 -.343E-09 -.343E-09   0.603E-26 0.568E-26 0.113E-27   0.982E-14 0.981E-14 0.980E-14
   -.153E-08 -.153E-08 -.153E-08   0.343E-09 0.343E-09 0.343E-09   0.540E-26 0.579E-26 0.113E-26   -.128E-12 -.128E-12 -.128E-12
 -----------------------------------------------------------------------------------------------
   -.152E-08 -.152E-08 -.152E-08   0.105E-16 0.131E-17 -.429E-18   0.114E-25 0.115E-25 0.124E-26   -.118E-12 -.118E-12 -.118E-12


 POSITION                                       TOTAL-FORCE (eV/Angst)
 -----------------------------------------------------------------------------------
      0.00000      0.00000      0.00000         0.000000     -0.000000      0.000000
      2.02799      2.02799   Direction    XX          YY          ZZ          XY          YZ          ZX
  --------------------------------------------------------------------------------------
  Alpha Z    -1.22789    -1.22789    -1.22789
  Ewald      -4.30674    -4.30674    -4.30674    -0.00000    -0.00000    -0.00000
  Hartree     0.01065     0.01065     0.01065    -0.00000    -0.00000    -0.00000
  E(xc)      -4.48696    -4.48696    -4.48696     0.00000    -0.00000     0.00000
  Local       0.94374     0.94374     0.94374    -0.00000    -0.00000     0.00000
  n-local     5.49187     5.46095     5.43210     0.03311     0.01175     0.01245
  augment     0.25113     0.25113     0.25113     0.00000     0.00000    -0.00000
  Kinetic     6.26994     2.59464     1.18405     2.00413     0.82262     0.91027
  Fock        0.00000     0.00000     0.00000     0.00000     0.00000     0.00000
  -------------------------------------------------------------------------------------
  Total      -0.00489    -0.00489    -0.00489    -0.00000    -0.00000     0.00000
  in kB      -0.11740    -0.11740    -0.11740    -0.00000    -0.00000     0.00000
  external pressure =       -0.12 kB  Pullay stress =        0.00 kB


 VOLUME and BASIS-vectors are now :
 ---------------------------------------    4ORBIT:  cpu time    0.0000: real time    0.0000

 total amount of memory used by VASP MPI-rank0    60347. kBytes
=======================================================================

   base      :      30000. kBytes
   nonl-proj :       6824. kBytes
   fftplans  :       3916. kBytes
   grid      :       6018. kBytes
   one-center:          2. kBytes
   wavefun   :      13587. kBytes

  
  
 General timing and accounting informations for this job:
 ========================================================
  
                  Total CPU time used (sec):       22.497
                            User time (sec):       22.191
                          System time (sec):        0.306
                         Elapsed time (sec):       36.357
  
                   Maximum memory used (kb):      244592.
                   Average memory used (kb):          N/A
  
                          Minor page faults:        43957
                          Major page faults:           11
                 Voluntary context switches:         2081
------------------------------------------------------------------------------------
   -.152E-08 -.152E-08 -.152E-08   0.104E-16 -.112E-16 -.869E-17   -.142E-25 0.381E-25 0.114E-25   -.118E-12 -.118E-12 -.118E-12


 POSITION                                       TOTAL-FORCE (eV/Angst)
 -----------------------------------------------------------------------------------
      0.00000     -0.00000     -0.00000        -0.000000      0.000000     -0.000000
      2.02799      2.02799      2.02799         0.000000     -0.000000      0.000000
 -----------------------------------------------------------------------------------
    total drift:                               -0.000000     -0.000000     -0.000000


--------------------------------------------------------------------------------------------------------



  FREE ENERGIE OF THE ION-ELECTRON SYSTEM (eV)
  ---------------------------------------------------
  free  energy   TOTEN  =        -2.90800586 eV

  energy  without entropy=       -2.90718454  energy(sigma->0) =       -2.90773209

 d Force = 0.0000000E+00[ 0.000E+00, 0.000E+00]  d Energy = 0.2739274E-01-0.274E-01
 d Force = 0.0000000E+00[ 0.000E+00, 0.000E+00]  d Ewald  = 0.5183105E+00-0.518E+00


--------------------------------------------------------------------------------------------------------


    POTLOK:  cpu time    0.0223: real time    0.0224


--------------------------------------------------------------------------------------------------------




--------------------------------------------------------------------------------------------------------


  
 reached required accuracy - stopping structural energy minimisation
 writing wavefunctions
     LOOP+:  cpu time    6.2411: real time    9.2668
    4ORBIT:  cpu time    0.0000: real time    0.0000

 total amount of memory used by VASP MPI-rank0    60347. kBytes
=======================================================================

   base      :      30000. kBytes
   nonl-proj :       6824. kBytes
   fftplans  :       3916. kBytes
   grid      :       6018. kBytes
   one-center:          2. kBytes
   wavefun   :      13587. kBytes

  
  
 General timing and accounting informations for this job:
 ========================================================
  
                  Total CPU time used (sec):       22.050
                            User time (sec):       21.810
                          System time (sec):        0.240
                         Elapsed time (sec):       39.712
  
                   Maximum memory used (kb):      246272.
                   Average memory used (kb):          N/A
  
                          Minor page faults:        44014
                          Major page faults:            9
                 Voluntary context switches:         2047
