<?xml version="1.0" encoding="ISO-8859-1"?>
<modeling>
 <generator>
  <i name="program" type="string">vasp </i>
  <i name="version" type="string">6.2.1  </i>
  <i name="subversion" type="string">16May21 (build Dec 20 2021 17:02:34) complex                          parallel </i>
  <i name="platform" type="string">LinuxGNU </i>
  <i name="date" type="string">2025 09 22 </i>
  <i name="time" type="string">07:58:44 </i>
 </generator>
 <incar>
  <i type="int" name="IBRION">     2</i>
  <i type="int" name="NSW">   100</i>
  <i type="int" name="ISIF">     3</i>
  <i name="ENCUT">    500.00000000</i>
  <i type="logical" name="LVTOT"> T  </i>
  <i type="logical" name="LVHAR"> T  </i>
 </incar>
 <primitive_cell>
  <structure name="primitive_cell" >
   <crystal>
    <varray name="basis" >
     <v>       2.14100003       2.14100003      -2.14100003 </v>
     <v>      -2.14100003       2.14100003       2.14100003 </v>
     <v>       2.14100003      -2.14100003       2.14100003 </v>
    </varray>
    <i name="volume">     39.25635866 </i>
    <varray name="rec_basis" >
     <v>       0.23353573       0.23353573      -0.00000000 </v>
     <v>       0.00000000       0.23353573       0.23353573 </v>
     <v>       0.23353573      -0.00000000       0.23353573 </v>
    </varray>
   </crystal>
   <varray name="positions" >
    <v>       0.00000000       0.00000000       0.00000000 </v>
   </varray>
  </structure>
  <varray name="primitive_index" >
   <v type="int" >        1 </v>
  </varray>
 </primitive_cell>
 <kpoints>
  <generation param="Monkhorst-Pack">
   <v type="int" name="divisions">      13       13       13 </v>
   <v name="usershift">      0.00000000       0.00000000       0.00000000 </v>
   <v name="genvec1">      0.07692308       0.00000000       0.00000000 </v>
   <v name="genvec2">      0.00000000       0.07692308       0.00000000 </v>
   <v name="genvec3">      0.00000000       0.00000000       0.07692308 </v>
   <v name="shift">      0.00000000       0.00000000       0.00000000 </v>
  </generation>
  <varray name="kpointlist" >
   <v>       0.00000000       0.00000000       0.00000000 </v>
   <v>       0.07692308       0.00000000       0.00000000 </v>
   <v>       0.15384615       0.00000000       0.00000000 </v>
   <v>       0.23076923       0.00000000       0.00000000 </v>
   <v>       0.30769231       0.00000000       0.00000000 </v>
   <v>       0.38461538       0.00000000       0.00000000 </v>
   <v>       0.46153846       0.00000000       0.00000000 </v>
   <v>       0.07692308       0.07692308       0.00000000 </v>
   <v>       0.15384615       0.07692308       0.00000000 </v>
   <v>       0.23076923       0.07692308       0.00000000 </v>
   <v>       0.30769231       0.07692308       0.00000000 </v>
   <v>       0.38461538       0.07692308       0.00000000 </v>
   <v>       0.46153846       0.07692308       0.00000000 </v>
   <v>       0.15384615       0.15384615       0.00000000 </v>
   <v>       0.23076923       0.15384615       0.00000000 </v>
   <v>       0.30769231       0.15384615       0.00000000 </v>
   <v>       0.38461538       0.15384615       0.00000000 </v>
   <v>       0.46153846       0.15384615       0.00000000 </v>
   <v>       0.23076923       0.23076923       0.00000000 </v>
   <v>       0.30769231       0.23076923       0.00000000 </v>
   <v>       0.38461538       0.23076923       0.00000000 </v>
   <v>       0.46153846       0.23076923       0.00000000 </v>
   <v>       0.30769231       0.30769231       0.00000000 </v>
   <v>       0.38461538       0.30769231       0.00000000 </v>
   <v>       0.46153846       0.30769231       0.00000000 </v>
   <v>       0.38461538       0.38461538       0.00000000 </v>
   <v>       0.46153846       0.38461538       0.00000000 </v>
   <v>       0.46153846       0.46153846       0.00000000 </v>
   <v>       0.07692308       0.07692308       0.07692308 </v>
   <v>       0.15384615       0.07692308       0.07692308 </v>
   <v>       0.23076923       0.07692308       0.07692308 </v>
   <v>       0.30769231       0.07692308       0.07692308 </v>
   <v>       0.38461538       0.07692308       0.07692308 </v>
   <v>       0.46153846       0.07692308       0.07692308 </v>
   <v>       0.15384615       0.15384615       0.07692308 </v>
   <v>       0.23076923       0.15384615       0.07692308 </v>
   <v>       0.30769231       0.15384615       0.07692308 </v>
   <v>       0.38461538       0.15384615       0.07692308 </v>
   <v>       0.46153846       0.15384615       0.07692308 </v>
   <v>       0.23076923       0.23076923       0.07692308 </v>
   <v>       0.30769231       0.23076923       0.07692308 </v>
   <v>       0.38461538       0.23076923       0.07692308 </v>
   <v>       0.46153846       0.23076923       0.07692308 </v>
   <v>       0.30769231       0.30769231       0.07692308 </v>
   <v>       0.38461538       0.30769231       0.07692308 </v>
   <v>       0.46153846       0.30769231       0.07692308 </v>
   <v>       0.38461538       0.38461538       0.07692308 </v>
   <v>       0.46153846       0.38461538       0.07692308 </v>
   <v>       0.46153846       0.46153846       0.07692308 </v>
   <v>       0.15384615       0.15384615       0.15384615 </v>
   <v>       0.23076923       0.15384615       0.15384615 </v>
   <v>       0.30769231       0.15384615       0.15384615 </v>
   <v>       0.38461538       0.15384615       0.15384615 </v>
   <v>       0.46153846       0.15384615       0.15384615 </v>
   <v>       0.23076923       0.23076923       0.15384615 </v>
   <v>       0.30769231       0.23076923       0.15384615 </v>
   <v>       0.38461538       0.23076923       0.15384615 </v>
   <v>       0.46153846       0.23076923       0.15384615 </v>
   <v>       0.30769231       0.30769231       0.15384615 </v>
   <v>       0.38461538       0.30769231       0.15384615 </v>
   <v>       0.46153846       0.30769231       0.15384615 </v>
   <v>       0.38461538       0.38461538       0.15384615 </v>
   <v>       0.46153846       0.38461538       0.15384615 </v>
   <v>       0.46153846       0.46153846       0.15384615 </v>
   <v>       0.23076923       0.23076923       0.23076923 </v>
   <v>       0.30769231       0.23076923       0.23076923 </v>
   <v>       0.38461538       0.23076923       0.23076923 </v>
   <v>       0.46153846       0.23076923       0.23076923 </v>
   <v>       0.30769231       0.30769231       0.23076923 </v>
   <v>       0.38461538       0.30769231       0.23076923 </v>
   <v>       0.46153846       0.30769231       0.23076923 </v>
   <v>       0.38461538       0.38461538       0.23076923 </v>
   <v>       0.46153846       0.38461538       0.23076923 </v>
   <v>       0.46153846       0.46153846       0.23076923 </v>
   <v>       0.30769231       0.30769231       0.30769231 </v>
   <v>       0.38461538       0.30769231       0.30769231 </v>
   <v>       0.46153846       0.30769231       0.30769231 </v>
   <v>       0.38461538       0.38461538       0.30769231 </v>
   <v>       0.46153846       0.38461538       0.30769231 </v>
   <v>       0.46153846       0.46153846       0.30769231 </v>
   <v>       0.38461538       0.38461538       0.38461538 </v>
   <v>       0.46153846       0.38461538       0.38461538 </v>
   <v>       0.46153846       0.46153846       0.38461538 </v>
   <v>       0.46153846       0.46153846       0.46153846 </v>
  </varray>
  <varray name="weights" >
   <v>       0.00045517 </v>
   <v>       0.00273100 </v>
   <v>       0.00273100 </v>
   <v>       0.00273100 </v>
   <v>       0.00273100 </v>
   <v>       0.00273100 </v>
   <v>       0.00273100 </v>
   <v>       0.00546199 </v>
   <v>       0.01092399 </v>
   <v>       0.01092399 </v>
   <v>       0.01092399 </v>
   <v>       0.01092399 </v>
   <v>       0.01092399 </v>
   <v>       0.00546199 </v>
   <v>       0.01092399 </v>
   <v>       0.01092399 </v>
   <v>       0.01092399 </v>
   <v>       0.01092399 </v>
   <v>       0.00546199 </v>
   <v>       0.01092399 </v>
   <v>       0.01092399 </v>
   <v>       0.01092399 </v>
   <v>       0.00546199 </v>
   <v>       0.01092399 </v>
   <v>       0.01092399 </v>
   <v>       0.00546199 </v>
   <v>       0.01092399 </v>
   <v>       0.00546199 </v>
   <v>       0.00364133 </v>
   <v>       0.01092399 </v>
   <v>       0.01092399 </v>
   <v>       0.01092399 </v>
   <v>       0.01092399 </v>
   <v>       0.01092399 </v>
   <v>       0.01092399 </v>
   <v>       0.02184797 </v>
   <v>       0.02184797 </v>
   <v>       0.02184797 </v>
   <v>       0.02184797 </v>
   <v>       0.01092399 </v>
   <v>       0.02184797 </v>
   <v>       0.02184797 </v>
   <v>       0.02184797 </v>
   <v>       0.01092399 </v>
   <v>       0.02184797 </v>
   <v>       0.02184797 </v>
   <v>       0.01092399 </v>
   <v>       0.02184797 </v>
   <v>       0.01092399 </v>
   <v>       0.00364133 </v>
   <v>       0.01092399 </v>
   <v>       0.01092399 </v>
   <v>       0.01092399 </v>
   <v>       0.01092399 </v>
   <v>       0.01092399 </v>
   <v>       0.02184797 </v>
   <v>       0.02184797 </v>
   <v>       0.02184797 </v>
   <v>       0.01092399 </v>
   <v>       0.02184797 </v>
   <v>       0.02184797 </v>
   <v>       0.01092399 </v>
   <v>       0.02184797 </v>
   <v>       0.01092399 </v>
   <v>       0.00364133 </v>
   <v>       0.01092399 </v>
   <v>       0.01092399 </v>
   <v>       0.01092399 </v>
   <v>       0.01092399 </v>
   <v>       0.02184797 </v>
   <v>       0.02184797 </v>
   <v>       0.01092399 </v>
   <v>       0.02184797 </v>
   <v>       0.01092399 </v>
   <v>       0.00364133 </v>
   <v>       0.01092399 </v>
   <v>       0.01092399 </v>
   <v>       0.01092399 </v>
   <v>       0.02184797 </v>
   <v>       0.01092399 </v>
   <v>       0.00364133 </v>
   <v>       0.01092399 </v>
   <v>       0.01092399 </v>
   <v>       0.00364133 </v>
  </varray>
 </kpoints>
 <parameters>
  <separator name="general" >
   <i type="string" name="SYSTEM">unknown system</i>
   <i type="logical" name="LCOMPAT"> F  </i>
  </separator>
  <separator name="electronic" >
   <i type="string" name="PREC">normal</i>
   <i name="ENMAX">    500.00000000</i>
   <i name="ENAUG">    250.69500000</i>
   <i name="EDIFF">      0.00010000</i>
   <i type="int" name="IALGO">    38</i>
   <i type="int" name="IWAVPR">    11</i>
   <i type="int" name="NBANDS">     5</i>
   <i type="int" name="NBANDSLOW">    -1</i>
   <i type="int" name="NBANDSHIGH">    -1</i>
   <i name="NELECT">      2.00000000</i>
   <i type="int" name="TURBO">     0</i>
   <i type="int" name="IRESTART">     0</i>
   <i type="int" name="NREBOOT">     0</i>
   <i type="int" name="NMIN">     0</i>
   <i name="EREF">      0.00000000</i>
   <separator name="electronic smearing" >
    <i type="int" name="ISMEAR">     1</i>
    <i name="SIGMA">      0.20000000</i>
    <i name="KSPACING">      0.50000000</i>
    <i type="logical" name="KGAMMA"> T  </i>
    <i type="logical" name="KBLOWUP"> T  </i>
   </separator>
   <separator name="electronic projectors" >
    <i type="logical" name="LREAL"> F  </i>
    <v name="ROPT">      0.00000000</v>
    <i type="int" name="LMAXPAW">  -100</i>
    <i type="int" name="LMAXMIX">     2</i>
    <i type="logical" name="NLSPLINE"> F  </i>
   </separator>
   <separator name="electronic startup" >
    <i type="int" name="ISTART">     1</i>
    <i type="int" name="ICHARG">     0</i>
    <i type="int" name="INIWAV">     1</i>
   </separator>
   <separator name="electronic spin" >
    <i type="int" name="ISPIN">     1</i>
    <i type="logical" name="LNONCOLLINEAR"> F  </i>
    <v name="MAGMOM">      1.00000000      1.00000000</v>
    <i name="NUPDOWN">     -1.00000000</i>
    <i type="logical" name="LSORBIT"> F  </i>
    <v name="SAXIS">      0.00000000      0.00000000      1.00000000</v>
    <i type="logical" name="LSPIRAL"> F  </i>
    <v name="QSPIRAL">      0.00000000      0.00000000      0.00000000</v>
    <i type="logical" name="LZEROZ"> F  </i>
   </separator>
   <separator name="electronic exchange-correlation" >
    <i type="logical" name="LASPH"> F  </i>
    <i type="logical" name="LMETAGGA"> F  </i>
   </separator>
   <separator name="electronic convergence" >
    <i type="int" name="NELM">    60</i>
    <i type="int" name="NELMDL">     0</i>
    <i type="int" name="NELMIN">     2</i>
    <i name="ENINI">    500.00000000</i>
    <separator name="electronic convergence detail" >
     <i type="logical" name="LDIAG"> T  </i>
     <i type="logical" name="LSUBROT"> F  </i>
     <i name="WEIMIN">      0.00100000</i>
     <i name="EBREAK">      0.00000500</i>
     <i name="DEPER">      0.30000000</i>
     <i type="int" name="NRMM">     4</i>
     <i name="TIME">      0.40000000</i>
    </separator>
   </separator>
   <separator name="electronic mixer" >
    <i name="AMIX">      0.40000000</i>
    <i name="BMIX">      1.00000000</i>
    <i name="AMIN">      0.10000000</i>
    <i name="AMIX_MAG">      1.60000000</i>
    <i name="BMIX_MAG">      1.00000000</i>
    <separator name="electronic mixer details" >
     <i type="int" name="IMIX">     4</i>
     <i type="logical" name="MIXFIRST"> F  </i>
     <i type="int" name="MAXMIX">   -45</i>
     <i name="WC">    100.00000000</i>
     <i type="int" name="INIMIX">     1</i>
     <i type="int" name="MIXPRE">     1</i>
     <i type="int" name="MREMOVE">     5</i>
    </separator>
   </separator>
   <separator name="electronic dipolcorrection" >
    <i type="logical" name="LDIPOL"> F  </i>
    <i type="logical" name="LMONO"> F  </i>
    <i type="int" name="IDIPOL">     0</i>
    <i name="EPSILON">      1.00000000</i>
    <v name="DIPOL">   -100.00000000   -100.00000000   -100.00000000</v>
    <i name="EFIELD">      0.00000000</i>
   </separator>
  </separator>
  <separator name="grids" >
   <i type="int" name="NGX">    24</i>
   <i type="int" name="NGY">    24</i>
   <i type="int" name="NGZ">    24</i>
   <i type="int" name="NGXF">    48</i>
   <i type="int" name="NGYF">    48</i>
   <i type="int" name="NGZF">    48</i>
   <i type="logical" name="ADDGRID"> F  </i>
  </separator>
  <separator name="ionic" >
   <i type="int" name="NSW">   100</i>
   <i type="int" name="IBRION">     2</i>
   <i type="int" name="MDALGO">     0</i>
   <i type="int" name="ISIF">     3</i>
   <i name="PSTRESS">      0.00000000</i>
   <i name="EDIFFG">      0.00100000</i>
   <i type="int" name="NFREE">     1</i>
   <i name="POTIM">      0.50000000</i>
   <i name="SMASS">     -3.00000000</i>
   <i name="SCALEE">      1.00000000</i>
  </separator>
  <separator name="ionic md" >
   <i name="TEBEG">      0.00010000</i>
   <i name="TEEND">      0.00010000</i>
   <i type="int" name="NBLOCK">     1</i>
   <i type="int" name="KBLOCK">   100</i>
   <i type="int" name="NPACO">   256</i>
   <i name="APACO">     16.00000000</i>
  </separator>
  <separator name="symmetry" >
   <i type="int" name="ISYM">     2</i>
   <i name="SYMPREC">      0.00001000</i>
  </separator>
  <separator name="dos" >
   <i type="int" name="LORBIT">     0</i>
   <v name="RWIGS">     -1.00000000</v>
   <i type="int" name="NEDOS">   301</i>
   <i name="EMIN">     10.00000000</i>
   <i name="EMAX">    -10.00000000</i>
   <i name="EFERMI">      0.00000000</i>
  </separator>
  <separator name="writing" >
   <i type="int" name="NWRITE">     2</i>
   <i type="logical" name="LWAVE"> T  </i>
   <i type="logical" name="LDOWNSAMPLE"> F  </i>
   <i type="logical" name="LCHARG"> T  </i>
   <i type="logical" name="LPARD"> F  </i>
   <i type="logical" name="LVTOT"> F  </i>
   <i type="logical" name="LVHAR"> T  </i>
   <i type="logical" name="LELF"> F  </i>
   <i type="logical" name="LOPTICS"> F  </i>
   <v name="STM">      0.00000000      0.00000000      0.00000000      0.00000000      0.00000000      0.00000000      0.00000000</v>
  </separator>
  <separator name="performance" >
   <i type="int" name="NPAR">     1</i>
   <i type="int" name="NSIM">     4</i>
   <i type="int" name="NBLK">    -1</i>
   <i type="logical" name="LPLANE"> T  </i>
   <i type="logical" name="LSCALAPACK"> T  </i>
   <i type="logical" name="LSCAAWARE"> F  </i>
   <i type="logical" name="LSCALU"> F  </i>
   <i type="logical" name="LASYNC"> F  </i>
   <i type="logical" name="LORBITALREAL"> F  </i>
  </separator>
  <separator name="miscellaneous" >
   <i type="int" name="IDIOT">     3</i>
   <i type="int" name="PHON_NSTRUCT">    -1</i>
   <i type="logical" name="LMUSIC"> F  </i>
   <v name="POMASS">     22.99000000</v>
   <v name="DARWINR">      0.00000000</v>
   <v name="DARWINV">      1.00000000</v>
   <i type="logical" name="LCORR"> T  </i>
  </separator>
  <i type="logical" name="GGA_COMPAT"> T  </i>
  <i type="logical" name="LBERRY"> F  </i>
  <i type="int" name="ICORELEVEL">     0</i>
  <i type="logical" name="LDAU"> F  </i>
  <i type="int" name="I_CONSTRAINED_M">     0</i>
  <separator name="electronic exchange-correlation" >
   <i type="string" name="GGA">--</i>
   <i type="int" name="VOSKOWN">     0</i>
   <i type="logical" name="LHFCALC"> F  </i>
   <i type="string" name="PRECFOCK"></i>
   <i type="logical" name="LSYMGRAD"> F  </i>
   <i type="logical" name="LHFONE"> F  </i>
   <i type="logical" name="LRHFCALC"> F  </i>
   <i type="logical" name="LTHOMAS"> F  </i>
   <i type="logical" name="LMODELHF"> F  </i>
   <i type="logical" name="LFOCKACE"> F  </i>
   <i name="ENCUT4O">     -1.00000000</i>
   <i type="int" name="EXXOEP">     0</i>
   <i type="int" name="FOURORBIT">     0</i>
   <i name="AEXX">      0.00000000</i>
   <i name="HFALPHA">      0.00000000</i>
   <i name="MCALPHA">      0.00000000</i>
   <i name="ALDAX">      1.00000000</i>
   <i name="AGGAX">      1.00000000</i>
   <i name="ALDAC">      1.00000000</i>
   <i name="AGGAC">      1.00000000</i>
   <i type="int" name="NKREDX">     1</i>
   <i type="int" name="NKREDY">     1</i>
   <i type="int" name="NKREDZ">     1</i>
   <i type="logical" name="SHIFTRED"> F  </i>
   <i type="logical" name="ODDONLY"> F  </i>
   <i type="logical" name="EVENONLY"> F  </i>
   <i type="int" name="LMAXFOCK">     0</i>
   <i type="int" name="NMAXFOCKAE">     0</i>
   <i type="logical" name="LFOCKAEDFT"> F  </i>
   <i name="HFSCREEN">      0.00000000</i>
   <i name="HFSCREENC">      0.00000000</i>
   <i type="int" name="NBANDSGWLOW">     0</i>
  </separator>
  <separator name="vdW DFT" >
   <i type="logical" name="LUSE_VDW"> F  </i>
   <i name="Zab_VDW">     -0.84910000</i>
   <i name="PARAM1">      0.12340000</i>
   <i name="PARAM2">      1.00000000</i>
   <i name="PARAM3">      0.00000000</i>
  </separator>
  <separator name="model GW" >
   <i type="int" name="MODEL_GW">     0</i>
   <i name="MODEL_EPS0">     23.55381520</i>
   <i name="MODEL_ALPHA">      1.00000000</i>
  </separator>
  <separator name="linear response parameters" >
   <i type="logical" name="LEPSILON"> F  </i>
   <i type="logical" name="LRPA"> F  </i>
   <i type="logical" name="LNABLA"> F  </i>
   <i type="logical" name="LVEL"> F  </i>
   <i type="int" name="KINTER">     0</i>
   <i name="CSHIFT">      0.10000000</i>
   <i name="OMEGAMAX">     -1.00000000</i>
   <i name="DEG_THRESHOLD">      0.00200000</i>
   <i name="RTIME">     -0.10000000</i>
   <i name="WPLASMAI">      0.00000000</i>
   <v name="DFIELD">      0.00000000      0.00000000      0.00000000</v>
   <v name="WPLASMA">      0.00000000      0.00000000      0.00000000      0.00000000      0.00000000      0.00000000      0.00000000      0.00000000      0.00000000</v>
  </separator>
  <separator name="orbital magnetization" >
   <i type="logical" name="NUCIND"> F  </i>
   <v name="MAGPOS">      0.00000000      0.00000000      0.00000000</v>
   <i type="logical" name="LNICSALL"> T  </i>
   <i type="logical" name="ORBITALMAG"> F  </i>
   <i type="logical" name="LMAGBLOCH"> F  </i>
   <i type="logical" name="LCHIMAG"> F  </i>
   <i type="logical" name="LGAUGE"> T  </i>
   <i type="int" name="MAGATOM">     0</i>
   <v name="MAGDIPOL">      0.00000000      0.00000000      0.00000000</v>
   <v name="AVECCONST">      0.00000000      0.00000000      0.00000000</v>
  </separator>
  <separator name="response functions" >
   <i type="logical" name="LFINITE_TEMPERATURE"> F  </i>
   <i type="logical" name="LADDER"> F  </i>
   <i type="logical" name="LRPAFORCE"> F  </i>
   <i type="logical" name="LFXC"> F  </i>
   <i type="logical" name="LHARTREE"> T  </i>
   <i type="int" name="IBSE">     0</i>
   <v type="int" name="KPOINT">    -1     0     0     0</v>
   <i type="logical" name="LTCTC"> F  </i>
   <i type="logical" name="LTCTE"> F  </i>
   <i type="logical" name="LTETE"> F  </i>
   <i type="logical" name="LTRIPLET"> F  </i>
   <i type="logical" name="LFXCEPS"> F  </i>
   <i type="logical" name="LFXHEG"> F  </i>
   <i type="int" name="NATURALO">     2</i>
   <i type="logical" name="LHOLEGF"> F  </i>
   <i type="logical" name="L2ORDER"> F  </i>
   <i type="logical" name="LDMP1"> F  </i>
   <i type="logical" name="LMP2LT"> F  </i>
   <i type="logical" name="LSMP2LT"> F  </i>
   <i type="logical" name="LGWLF"> F  </i>
   <i name="ENCUTGW">     -2.00000000</i>
   <i name="ENCUTGWSOFT">     -2.00000000</i>
   <i name="ENCUTLF">     -1.00000000</i>
   <i type="logical" name="LESF_SPLINES"> F  </i>
   <i type="int" name="LMAXMP2">    -1</i>
   <i name="SCISSOR">      0.00000000</i>
   <i type="int" name="NOMEGA">     0</i>
   <i type="int" name="NOMEGAR">     0</i>
   <i type="int" name="NBANDSGW">    -1</i>
   <i type="int" name="NBANDSO">    -1</i>
   <i type="int" name="NBANDSV">    -1</i>
   <i type="int" name="NELM">     1</i>
   <i type="int" name="NELMHF">     1</i>
   <i type="int" name="DIM">     3</i>
   <i type="int" name="IESPILON">     4</i>
   <i type="int" name="ANTIRES">     0</i>
   <i name="OMEGAMAX">    -30.00000000</i>
   <i name="OMEGAMIN">    -30.00000000</i>
   <i name="OMEGATL">   -200.00000000</i>
   <i type="int" name="OMEGAGRID">     0</i>
   <i name="CSHIFT">     -0.10000000</i>
   <i type="logical" name="LSELFENERGY"> F  </i>
   <i type="logical" name="LSPECTRAL"> F  </i>
   <i type="logical" name="LSPECTRALGW"> F  </i>
   <i type="logical" name="LSINGLES"> F  </i>
   <i type="logical" name="LFERMIGW"> F  </i>
   <i type="logical" name="ODDONLYGW"> F  </i>
   <i type="logical" name="EVENONLYGW"> F  </i>
   <i type="int" name="NKREDLFX">     1</i>
   <i type="int" name="NKREDLFY">     1</i>
   <i type="int" name="NKREDLFZ">     1</i>
   <i type="int" name="MAXMEM">  2800</i>
   <i type="int" name="TELESCOPE">     0</i>
   <i type="int" name="NTAUPAR">    -1</i>
   <i type="int" name="NOMEGAPAR">    -1</i>
   <i name="DAMP_NEWTON">      0.80000001</i>
   <i name="LAMBDA">      1.00000000</i>
  </separator>
  <separator name="External order field" >
   <i name="OFIELD_KAPPA">      0.00000000</i>
   <v name="OFIELD_K">      0.00000000      0.00000000      0.00000000</v>
   <i name="OFIELD_Q6_NEAR">      0.00000000</i>
   <i name="OFIELD_Q6_FAR">      0.00000000</i>
   <i name="OFIELD_A">      0.00000000</i>
  </separator>
 </parameters>
 <atominfo>
  <atoms>       2 </atoms>
  <types>       1 </types>
  <array name="atoms" >
   <dimension dim="1">ion</dimension>
   <field type="string">element</field>
   <field type="int">atomtype</field>
   <set>
    <rc><c>Na</c><c>   1</c></rc>
    <rc><c>Na</c><c>   1</c></rc>
   </set>
  </array>
  <array name="atomtypes" >
   <dimension dim="1">type</dimension>
   <field type="int">atomspertype</field>
   <field type="string">element</field>
   <field>mass</field>
   <field>valence</field>
   <field type="string">pseudopotential</field>
   <set>
    <rc><c>   2</c><c>Na</c><c>     22.99000000</c><c>      1.00000000</c><c>  PAW Na 24Mar1998                      </c></rc>
   </set>
  </array>
 </atominfo>
 <structure name="initialpos" >
  <crystal>
   <varray name="basis" >
    <v>       4.28200006       0.00000000       0.00000000 </v>
    <v>       0.00000000       4.28200006       0.00000000 </v>
    <v>       0.00000000       0.00000000       4.28200006 </v>
   </varray>
   <i name="volume">     78.51271733 </i>
   <varray name="rec_basis" >
    <v>       0.23353573       0.00000000       0.00000000 </v>
    <v>       0.00000000       0.23353573       0.00000000 </v>
    <v>       0.00000000       0.00000000       0.23353573 </v>
   </varray>
  </crystal>
  <varray name="positions" >
   <v>       0.00000000       0.00000000       0.00000000 </v>
   <v>       0.50000000       0.50000000       0.50000000 </v>
  </varray>
 </structure>
 <calculation>
  <scstep>
   <time name="dav">    1.80    1.82</time>
   <time name="total">    2.02    2.27</time>
   <energy>
    <i name="alphaZ">     -1.04353988 </i>
    <i name="ewald">    -12.23825003 </i>
    <i name="hartreedc">     -0.01046841 </i>
    <i name="XCdc">    -72.55397093 </i>
    <i name="pawpsdc">     74.17325786 </i>
    <i name="pawaedc">     -0.70846270 </i>
    <i name="eentropy">     -0.00099285 </i>
    <i name="bandstr">     -0.53646201 </i>
    <i name="atom">     10.38177359 </i>
    <i name="e_fr_energy">     -2.53711538 </i>
    <i name="e_wo_entrp">     -2.53612252 </i>
    <i name="e_0_energy">     -2.53678442 </i>
   </energy>
  </scstep>
  <scstep>
   <time name="dav">    1.75    1.77</time>
   <time name="total">    1.96    1.98</time>
   <energy>
    <i name="e_fr_energy">     -2.86275831 </i>
    <i name="e_wo_entrp">     -2.86182810 </i>
    <i name="e_0_energy">     -2.86244824 </i>
   </energy>
  </scstep>
  <scstep>
   <time name="dav">    1.73    1.74</time>
   <time name="total">    1.94    1.95</time>
   <energy>
    <i name="e_fr_energy">     -2.86145578 </i>
    <i name="e_wo_entrp">     -2.86051880 </i>
    <i name="e_0_energy">     -2.86114345 </i>
   </energy>
  </scstep>
  <scstep>
   <time name="dav">    1.39    1.40</time>
   <time name="total">    1.60    1.61</time>
   <energy>
    <i name="e_fr_energy">     -2.86115392 </i>
    <i name="e_wo_entrp">     -2.86021602 </i>
    <i name="e_0_energy">     -2.86084128 </i>
   </energy>
  </scstep>
  <scstep>
   <time name="dav">    0.97    0.97</time>
   <time name="total">    0.99    1.00</time>
   <energy>
    <i name="alphaZ">     -1.04353988 </i>
    <i name="ewald">    -12.23825003 </i>
    <i name="hartreedc">     -0.02099761 </i>
    <i name="XCdc">    -71.45858286 </i>
    <i name="pawpsdc">     76.94216848 </i>
    <i name="pawaedc">     -3.48767866 </i>
    <i name="eentropy">     -0.00093790 </i>
    <i name="bandstr">     -1.93510295 </i>
    <i name="atom">     10.38177359 </i>
    <i name="e_fr_energy">     -2.86114783 </i>
    <i name="e_wo_entrp">     -2.86020993 </i>
    <i name="e_0_energy">     -2.86083520 </i>
   </energy>
  </scstep>
  <structure>
   <crystal>
    <varray name="basis" >
     <v>       4.28200006       0.00000000       0.00000000 </v>
     <v>       0.00000000       4.28200006       0.00000000 </v>
     <v>       0.00000000       0.00000000       4.28200006 </v>
    </varray>
    <i name="volume">     78.51271733 </i>
    <varray name="rec_basis" >
     <v>       0.23353573       0.00000000       0.00000000 </v>
     <v>       0.00000000       0.23353573       0.00000000 </v>
     <v>       0.00000000       0.00000000       0.23353573 </v>
    </varray>
   </crystal>
   <varray name="positions" >
    <v>       0.00000000       0.00000000       0.00000000 </v>
    <v>       0.50000000       0.50000000       0.50000000 </v>
   </varray>
  </structure>
  <varray name="forces" >
   <v>       0.00000000      -0.00000000      -0.00000000 </v>
   <v>      -0.00000000       0.00000000       0.00000000 </v>
  </varray>
  <varray name="stress" >
   <v>     -11.16347961      -0.00000000       0.00000000 </v>
   <v>       0.00000000     -11.16347961      -0.00000000 </v>
   <v>      -0.00000000       0.00000000     -11.16347961 </v>
  </varray>
  <energy>
   <i name="e_fr_energy">     -2.86114783 </i>
   <i name="e_wo_entrp">     -2.86020993 </i>
   <i name="e_0_energy">     -2.86083520 </i>
  </energy>
  <time name="totalsc">   10.05   14.31</time>
 </calculation>
 <calculation>
  <scstep>
   <time name="dav">    1.57    1.58</time>
   <time name="total">    1.77    1.78</time>
   <energy>
    <i name="alphaZ">     -1.08596509 </i>
    <i name="ewald">    -12.40190095 </i>
    <i name="hartreedc">     -0.02124126 </i>
    <i name="XCdc">    -71.44828483 </i>
    <i name="pawpsdc">     76.88057444 </i>
    <i name="pawaedc">     -3.42589281 </i>
    <i name="eentropy">     -0.00090893 </i>
    <i name="bandstr">     -1.75875365 </i>
    <i name="atom">     10.38177359 </i>
    <i name="e_fr_energy">     -2.88059948 </i>
    <i name="e_wo_entrp">     -2.87969055 </i>
    <i name="e_0_energy">     -2.88029650 </i>
   </energy>
  </scstep>
  <scstep>
   <time name="dav">    1.62    1.62</time>
   <time name="total">    1.64    1.65</time>
   <energy>
    <i name="alphaZ">     -1.08596509 </i>
    <i name="ewald">    -12.40190095 </i>
    <i name="hartreedc">     -0.02191440 </i>
    <i name="XCdc">    -71.44602197 </i>
    <i name="pawpsdc">     77.01864985 </i>
    <i name="pawaedc">     -3.56437013 </i>
    <i name="eentropy">     -0.00090894 </i>
    <i name="bandstr">     -1.75995508 </i>
    <i name="atom">     10.38177359 </i>
    <i name="e_fr_energy">     -2.88061312 </i>
    <i name="e_wo_entrp">     -2.87970418 </i>
    <i name="e_0_energy">     -2.88031014 </i>
   </energy>
  </scstep>
  <structure>
   <crystal>
    <varray name="basis" >
     <v>       4.22549637      -0.00000000      -0.00000000 </v>
     <v>      -0.00000000       4.22549637      -0.00000000 </v>
     <v>      -0.00000000       0.00000000       4.22549637 </v>
    </varray>
    <i name="volume">     75.44547509 </i>
    <varray name="rec_basis" >
     <v>       0.23665859       0.00000000       0.00000000 </v>
     <v>       0.00000000       0.23665859      -0.00000000 </v>
     <v>       0.00000000       0.00000000       0.23665859 </v>
    </varray>
   </crystal>
   <varray name="positions" >
    <v>      -0.00000000      -0.00000000      -0.00000000 </v>
    <v>       0.50000000       0.50000000       0.50000000 </v>
   </varray>
  </structure>
  <varray name="forces" >
   <v>      -0.00000000       0.00000000      -0.00000000 </v>
   <v>       0.00000000      -0.00000000       0.00000000 </v>
  </varray>
  <varray name="stress" >
   <v>      -9.17235679       0.00000000      -0.00000000 </v>
   <v>       0.00000000      -9.17235679       0.00000000 </v>
   <v>       0.00000000       0.00000000      -9.17235679 </v>
  </varray>
  <energy>
   <i name="e_fr_energy">     -2.88061312 </i>
   <i name="e_wo_entrp">     -2.87970418 </i>
   <i name="e_0_energy">     -2.88031014 </i>
  </energy>
  <time name="totalsc">    4.83    6.78</time>
 </calculation>
 <calculation>
  <scstep>
   <time name="dav">    1.60    1.61</time>
   <time name="total">    1.79    1.80</time>
   <energy>
    <i name="alphaZ">     -1.22789139 </i>
    <i name="ewald">    -12.92021147 </i>
    <i name="hartreedc">     -0.02425842 </i>
    <i name="XCdc">    -71.41186963 </i>
    <i name="pawpsdc">     77.09008543 </i>
    <i name="pawaedc">     -3.63643091 </i>
    <i name="eentropy">     -0.00082099 </i>
    <i name="bandstr">     -1.15829281 </i>
    <i name="atom">     10.38177359 </i>
    <i name="e_fr_energy">     -2.90791659 </i>
    <i name="e_wo_entrp">     -2.90709560 </i>
    <i name="e_0_energy">     -2.90764293 </i>
   </energy>
  </scstep>
  <scstep>
   <time name="dav">    1.74    1.75</time>
   <time name="total">    1.93    1.94</time>
   <energy>
    <i name="e_fr_energy">     -2.90803101 </i>
    <i name="e_wo_entrp">     -2.90720950 </i>
    <i name="e_0_energy">     -2.90775717 </i>
   </energy>
  </scstep>
  <scstep>
   <time name="dav">    1.21    1.21</time>
   <time name="total">    1.23    1.24</time>
   <energy>
    <i name="alphaZ">     -1.22789139 </i>
    <i name="ewald">    -12.92021147 </i>
    <i name="hartreedc">     -0.03123911 </i>
    <i name="XCdc">    -71.39063399 </i>
    <i name="pawpsdc">     77.79563771 </i>
    <i name="pawaedc">     -4.34562976 </i>
    <i name="eentropy">     -0.00082132 </i>
    <i name="bandstr">     -1.16899012 </i>
    <i name="atom">     10.38177359 </i>
    <i name="e_fr_energy">     -2.90800586 </i>
    <i name="e_wo_entrp">     -2.90718454 </i>
    <i name="e_0_energy">     -2.90773209 </i>
   </energy>
  </scstep>
  <structure>
   <crystal>
    <varray name="basis" >
     <v>       4.05598527      -0.00000000      -0.00000000 </v>
     <v>      -0.00000000       4.05598527      -0.00000000 </v>
     <v>      -0.00000000       0.00000000       4.05598527 </v>
    </varray>
    <i name="volume">     66.72508067 </i>
    <varray name="rec_basis" >
     <v>       0.24654922       0.00000000       0.00000000 </v>
     <v>       0.00000000       0.24654922      -0.00000000 </v>
     <v>       0.00000000       0.00000000       0.24654922 </v>
    </varray>
   </crystal>
   <varray name="positions" >
    <v>      -0.00000000      -0.00000000      -0.00000000 </v>
    <v>       0.50000000       0.50000000       0.50000000 </v>
   </varray>
  </structure>
  <varray name="forces" >
   <v>      -0.00000000      -0.00000000      -0.00000000 </v>
   <v>       0.00000000       0.00000000       0.00000000 </v>
  </varray>
  <varray name="stress" >
   <v>      -0.11739515       0.00000000      -0.00000000 </v>
   <v>       0.00000000      -0.11739515       0.00000000 </v>
   <v>      -0.00000000       0.00000000      -0.11739515 </v>
  </varray>
  <energy>
   <i name="e_fr_energy">     -2.90800586 </i>
   <i name="e_wo_entrp">     -2.90718454 </i>
   <i name="e_0_energy">     -2.90773209 </i>
  </energy>
  <time name="totalsc">    6.27    9.23</time>
  <eigenvalues>
   <array>
    <dimension dim="1">band</dimension>
    <dimension dim="2">kpoint</dimension>
    <dimension dim="3">spin</dimension>
    <field>eigene</field>
    <field>occ</field>
    <set>
     <set comment="spin 1">
      <set comment="kpoint 1">
       <r>   -2.7169    1.0000 </r>
       <r>    5.5400   -0.0000 </r>
       <r>    5.5400   -0.0000 </r>
       <r>    5.9668   -0.0000 </r>
       <r>    5.9668   -0.0000 </r>
      </set>
      <set comment="kpoint 2">
       <r>   -2.6611    1.0000 </r>
       <r>    4.6707   -0.0000 </r>
       <r>    5.5939   -0.0000 </r>
       <r>    6.0113   -0.0000 </r>
       <r>    6.0113   -0.0000 </r>
      </set>
      <set comment="kpoint 3">
       <r>   -2.4939    1.0000 </r>
       <r>    3.6130   -0.0000 </r>
       <r>    5.7555   -0.0000 </r>
       <r>    6.1450   -0.0000 </r>
       <r>    6.1450   -0.0000 </r>
      </set>
      <set comment="kpoint 4">
       <r>   -2.2163    1.0000 </r>
       <r>    2.5893   -0.0000 </r>
       <r>    6.0248   -0.0000 </r>
       <r>    6.3684    0.0000 </r>
       <r>    6.3684    0.0000 </r>
      </set>
      <set comment="kpoint 5">
       <r>   -1.8298    1.0000 </r>
       <r>    1.6296   -0.0000 </r>
       <r>    6.4018    0.0000 </r>
       <r>    6.6820    0.0000 </r>
       <r>    6.6820    0.0000 </r>
      </set>
      <set comment="kpoint 6">
       <r>   -1.3367    1.0000 </r>
       <r>    0.7491    0.7463 </r>
       <r>    6.8864    0.0000 </r>
       <r>    7.0867    0.0000 </r>
       <r>    7.0867    0.0000 </r>
      </set>
      <set comment="kpoint 7">
       <r>   -0.7398    1.0000 </r>
       <r>   -0.0429    1.0000 </r>
       <r>    7.4786    0.0000 </r>
       <r>    7.5836    0.0000 </r>
       <r>    7.5836    0.0000 </r>
      </set>
      <set comment="kpoint 8">
       <r>   -2.6053    1.0000 </r>
       <r>    4.5508   -0.0000 </r>
       <r>    4.9540   -0.0000 </r>
       <r>    6.0558   -0.0000 </r>
       <r>    6.3799    0.0000 </r>
      </set>
      <set comment="kpoint 9">
       <r>   -2.4383    1.0000 </r>
       <r>    3.6447   -0.0000 </r>
       <r>    4.9623   -0.0000 </r>
       <r>    6.1895   -0.0000 </r>
       <r>    6.5984    0.0000 </r>
      </set>
      <set comment="kpoint 10">
       <r>   -2.1610    1.0000 </r>
       <r>    2.6355   -0.0000 </r>
       <r>    5.1993   -0.0000 </r>
       <r>    6.4128    0.0000 </r>
       <r>    6.8691    0.0000 </r>
      </set>
      <set comment="kpoint 11">
       <r>   -1.7748    1.0000 </r>
       <r>    1.6799   -0.0000 </r>
       <r>    5.5444   -0.0000 </r>
       <r>    6.7264    0.0000 </r>
       <r>    7.2329    0.0000 </r>
      </set>
      <set comment="kpoint 12">
       <r>   -1.2822    1.0000 </r>
       <r>    0.8012    0.5388 </r>
       <r>    5.9901   -0.0000 </r>
       <r>    7.1311    0.0000 </r>
       <r>    7.6950    0.0000 </r>
      </set>
      <set comment="kpoint 13">
       <r>   -0.6859    1.0000 </r>
       <r>    0.0103    1.0000 </r>
       <r>    6.5340    0.0000 </r>
       <r>    7.1745    0.0000 </r>
       <r>    7.6279    0.0000 </r>
      </set>
      <set comment="kpoint 14">
       <r>   -2.2717    1.0000 </r>
       <r>    3.5754   -0.0000 </r>
       <r>    4.1342   -0.0000 </r>
       <r>    6.3232    0.0000 </r>
       <r>    6.9041    0.0000 </r>
      </set>
      <set comment="kpoint 15">
       <r>   -1.9952    1.0000 </r>
       <r>    2.7627   -0.0000 </r>
       <r>    4.1747   -0.0000 </r>
       <r>    6.5464    0.0000 </r>
       <r>    7.2143    0.0000 </r>
      </set>
      <set comment="kpoint 16">
       <r>   -1.6101    1.0000 </r>
       <r>    1.8286   -0.0000 </r>
       <r>    4.4998   -0.0000 </r>
       <r>    6.8599    0.0000 </r>
       <r>    7.6052    0.0000 </r>
      </set>
      <set comment="kpoint 17">
       <r>   -1.1189    1.0000 </r>
       <r>    0.9567    0.0295 </r>
       <r>    4.9415   -0.0000 </r>
       <r>    7.2643    0.0000 </r>
       <r>    8.0895    0.0000 </r>
      </set>
      <set comment="kpoint 18">
       <r>   -0.5244    1.0000 </r>
       <r>    0.1693    1.0000 </r>
       <r>    5.4853   -0.0000 </r>
       <r>    6.1272   -0.0000 </r>
       <r>    7.7606    0.0000 </r>
      </set>
      <set comment="kpoint 19">
       <r>   -1.7199    1.0000 </r>
       <r>    2.7934   -0.0000 </r>
       <r>    3.3751   -0.0000 </r>
       <r>    6.7695    0.0000 </r>
       <r>    7.6156    0.0000 </r>
      </set>
      <set comment="kpoint 20">
       <r>   -1.3367    1.0000 </r>
       <r>    2.0630   -0.0000 </r>
       <r>    3.5023   -0.0000 </r>
       <r>    6.6961    0.0000 </r>
       <r>    7.0826    0.0000 </r>
      </set>
      <set comment="kpoint 21">
       <r>   -0.8479    1.0000 </r>
       <r>    1.2127   -0.0077 </r>
       <r>    3.9296   -0.0000 </r>
       <r>    5.8624   -0.0000 </r>
       <r>    7.4863    0.0000 </r>
      </set>
      <set comment="kpoint 22">
       <r>   -0.2565    1.0000 </r>
       <r>    0.4328    1.0113 </r>
       <r>    4.4744   -0.0000 </r>
       <r>    7.9814    0.0000 </r>
       <r>    9.0075    0.0000 </r>
      </set>
      <set comment="kpoint 23">
       <r>   -0.9561    1.0000 </r>
       <r>    2.2076   -0.0000 </r>
       <r>    2.7625   -0.0000 </r>
       <r>    7.3949    0.0000 </r>
       <r>    8.3443    0.0000 </r>
      </set>
      <set comment="kpoint 24">
       <r>   -0.4708    1.0000 </r>
       <r>    1.5569   -0.0000 </r>
       <r>    3.0001   -0.0000 </r>
       <r>    7.7971    0.0000 </r>
       <r>    8.8272    0.0000 </r>
      </set>
      <set comment="kpoint 25">
       <r>    0.1157    1.0000 </r>
       <r>    0.7973    0.5550 </r>
       <r>    3.5352   -0.0000 </r>
       <r>    4.1844   -0.0000 </r>
       <r>    8.2888    0.0000 </r>
      </set>
      <set comment="kpoint 26">
       <r>    0.0096    1.0000 </r>
       <r>    1.8178   -0.0000 </r>
       <r>    2.3373   -0.0000 </r>
       <r>    4.0865   -0.0000 </r>
       <r>    8.1956    0.0000 </r>
      </set>
      <set comment="kpoint 27">
       <r>    0.5882    1.0331 </r>
       <r>    1.2507   -0.0039 </r>
       <r>    2.6920   -0.0000 </r>
       <r>    3.3345   -0.0000 </r>
       <r>    8.6781    0.0000 </r>
      </set>
      <set comment="kpoint 28">
       <r>    1.1483   -0.0190 </r>
       <r>    1.6230   -0.0000 </r>
       <r>    2.1203   -0.0000 </r>
       <r>    2.5883   -0.0000 </r>
       <r>    9.1263    0.0000 </r>
      </set>
      <set comment="kpoint 29">
       <r>   -2.5496    1.0000 </r>
       <r>    4.6006   -0.0000 </r>
       <r>    4.6006   -0.0000 </r>
       <r>    5.5831   -0.0000 </r>
       <r>    7.2066    0.0000 </r>
      </set>
      <set comment="kpoint 30">
       <r>   -2.3827    1.0000 </r>
       <r>    3.6795   -0.0000 </r>
       <r>    4.7497   -0.0000 </r>
       <r>    5.5884   -0.0000 </r>
       <r>    7.3528    0.0000 </r>
      </set>
      <set comment="kpoint 31">
       <r>   -2.1056    1.0000 </r>
       <r>    2.6817   -0.0000 </r>
       <r>    4.9982   -0.0000 </r>
       <r>    5.8009   -0.0000 </r>
       <r>    7.5971    0.0000 </r>
      </set>
      <set comment="kpoint 32">
       <r>   -1.7199    1.0000 </r>
       <r>    1.7301   -0.0000 </r>
       <r>    5.3459   -0.0000 </r>
       <r>    6.1275   -0.0000 </r>
       <r>    7.9401    0.0000 </r>
      </set>
      <set comment="kpoint 33">
       <r>   -1.2277    1.0000 </r>
       <r>    0.8532    0.3234 </r>
       <r>    5.7925   -0.0000 </r>
       <r>    6.5527    0.0000 </r>
       <r>    7.7228    0.0000 </r>
      </set>
      <set comment="kpoint 34">
       <r>   -0.6320    1.0000 </r>
       <r>    0.0634    1.0000 </r>
       <r>    6.3378    0.0000 </r>
       <r>    6.9814    0.0000 </r>
       <r>    7.0709    0.0000 </r>
      </set>
      <set comment="kpoint 35">
       <r>   -2.2163    1.0000 </r>
       <r>    3.6245   -0.0000 </r>
       <r>    4.1068   -0.0000 </r>
       <r>    5.5112   -0.0000 </r>
       <r>    7.8179    0.0000 </r>
      </set>
      <set comment="kpoint 36">
       <r>   -1.9400    1.0000 </r>
       <r>    2.8094   -0.0000 </r>
       <r>    4.1805   -0.0000 </r>
       <r>    5.7152   -0.0000 </r>
       <r>    8.1920    0.0000 </r>
      </set>
      <set comment="kpoint 37">
       <r>   -1.5554    1.0000 </r>
       <r>    1.8785   -0.0000 </r>
       <r>    4.5100   -0.0000 </r>
       <r>    6.0439   -0.0000 </r>
       <r>    7.7047    0.0000 </r>
      </set>
      <set comment="kpoint 38">
       <r>   -1.0646    1.0000 </r>
       <r>    1.0084   -0.0241 </r>
       <r>    4.9518   -0.0000 </r>
       <r>    6.4742    0.0000 </r>
       <r>    6.8740    0.0000 </r>
      </set>
      <set comment="kpoint 39">
       <r>   -0.4707    1.0000 </r>
       <r>    0.2222    1.0001 </r>
       <r>    5.4951   -0.0000 </r>
       <r>    6.1366   -0.0000 </r>
       <r>    6.9988    0.0000 </r>
      </set>
      <set comment="kpoint 40">
       <r>   -1.6650    1.0000 </r>
       <r>    2.8423   -0.0000 </r>
       <r>    3.4082   -0.0000 </r>
       <r>    5.9194   -0.0000 </r>
       <r>    7.6457    0.0000 </r>
      </set>
      <set comment="kpoint 41">
       <r>   -1.2822    1.0000 </r>
       <r>    2.1123   -0.0000 </r>
       <r>    3.5418   -0.0000 </r>
       <r>    6.2473   -0.0000 </r>
       <r>    6.7304    0.0000 </r>
      </set>
      <set comment="kpoint 42">
       <r>   -0.7938    1.0000 </r>
       <r>    1.2640   -0.0031 </r>
       <r>    3.9693   -0.0000 </r>
       <r>    5.8987   -0.0000 </r>
       <r>    6.6759    0.0000 </r>
      </set>
      <set comment="kpoint 43">
       <r>   -0.2032    1.0000 </r>
       <r>    0.4853    1.0219 </r>
       <r>    4.5131   -0.0000 </r>
       <r>    5.1580   -0.0000 </r>
       <r>    7.1979    0.0000 </r>
      </set>
      <set comment="kpoint 44">
       <r>   -0.9020    1.0000 </r>
       <r>    2.2564   -0.0000 </r>
       <r>    2.8097   -0.0000 </r>
       <r>    5.8125   -0.0000 </r>
       <r>    6.5721    0.0000 </r>
      </set>
      <set comment="kpoint 45">
       <r>   -0.4172    1.0000 </r>
       <r>    1.6073   -0.0000 </r>
       <r>    3.0477   -0.0000 </r>
       <r>    4.9758   -0.0000 </r>
       <r>    6.9959    0.0000 </r>
      </set>
      <set comment="kpoint 46">
       <r>    0.1686    1.0000 </r>
       <r>    0.8492    0.3388 </r>
       <r>    3.5818   -0.0000 </r>
       <r>    4.2298   -0.0000 </r>
       <r>    7.5095    0.0000 </r>
      </set>
      <set comment="kpoint 47">
       <r>    0.0626    1.0000 </r>
       <r>    1.8664   -0.0000 </r>
       <r>    2.3891   -0.0000 </r>
       <r>    4.1333   -0.0000 </r>
       <r>    7.4105    0.0000 </r>
      </set>
      <set comment="kpoint 48">
       <r>    0.6404    1.0017 </r>
       <r>    1.3016   -0.0014 </r>
       <r>    2.7421   -0.0000 </r>
       <r>    3.3831   -0.0000 </r>
       <r>    7.9054    0.0000 </r>
      </set>
      <set comment="kpoint 49">
       <r>    1.1993   -0.0095 </r>
       <r>    1.6716   -0.0000 </r>
       <r>    2.1736   -0.0000 </r>
       <r>    2.6391   -0.0000 </r>
       <r>    8.3449    0.0000 </r>
      </set>
      <set comment="kpoint 50">
       <r>   -2.0504    1.0000 </r>
       <r>    3.7721   -0.0000 </r>
       <r>    3.7721   -0.0000 </r>
       <r>    4.9070   -0.0000 </r>
       <r>    8.9359    0.0000 </r>
      </set>
      <set comment="kpoint 51">
       <r>   -1.7748    1.0000 </r>
       <r>    2.9406   -0.0000 </r>
       <r>    4.0181   -0.0000 </r>
       <r>    4.9522   -0.0000 </r>
       <r>    8.5039    0.0000 </r>
      </set>
      <set comment="kpoint 52">
       <r>   -1.3913    1.0000 </r>
       <r>    2.0261   -0.0000 </r>
       <r>    4.3626   -0.0000 </r>
       <r>    5.2537   -0.0000 </r>
       <r>    7.5676    0.0000 </r>
      </set>
      <set comment="kpoint 53">
       <r>   -0.9020    1.0000 </r>
       <r>    1.1629   -0.0159 </r>
       <r>    4.8058   -0.0000 </r>
       <r>    5.6842   -0.0000 </r>
       <r>    7.5359    0.0000 </r>
      </set>
      <set comment="kpoint 54">
       <r>   -0.3100    1.0000 </r>
       <r>    0.3804    1.0048 </r>
       <r>    5.3478   -0.0000 </r>
       <r>    6.2163   -0.0000 </r>
       <r>    6.8375    0.0000 </r>
      </set>
      <set comment="kpoint 55">
       <r>   -1.5006    1.0000 </r>
       <r>    2.9890   -0.0000 </r>
       <r>    3.4635   -0.0000 </r>
       <r>    4.9190   -0.0000 </r>
       <r>    7.7147    0.0000 </r>
      </set>
      <set comment="kpoint 56">
       <r>   -1.1189    1.0000 </r>
       <r>    2.2589   -0.0000 </r>
       <r>    3.6364   -0.0000 </r>
       <r>    5.2118   -0.0000 </r>
       <r>    6.8148    0.0000 </r>
      </set>
      <set comment="kpoint 57">
       <r>   -0.6321    1.0000 </r>
       <r>    1.4170   -0.0001 </r>
       <r>    4.0664   -0.0000 </r>
       <r>    5.6398   -0.0000 </r>
       <r>    5.9870   -0.0000 </r>
      </set>
      <set comment="kpoint 58">
       <r>   -0.0434    1.0000 </r>
       <r>    0.6424    0.9996 </r>
       <r>    4.6079   -0.0000 </r>
       <r>    5.2495   -0.0000 </r>
       <r>    6.1699   -0.0000 </r>
      </set>
      <set comment="kpoint 59">
       <r>   -0.7399    1.0000 </r>
       <r>    2.4026   -0.0000 </r>
       <r>    2.9426   -0.0000 </r>
       <r>    5.5024   -0.0000 </r>
       <r>    5.9284   -0.0000 </r>
      </set>
      <set comment="kpoint 60">
       <r>   -0.2567    1.0000 </r>
       <r>    1.7579   -0.0000 </r>
       <r>    3.1854   -0.0000 </r>
       <r>    5.1016   -0.0000 </r>
       <r>    5.9247   -0.0000 </r>
      </set>
      <set comment="kpoint 61">
       <r>    0.3269    1.0017 </r>
       <r>    1.0045   -0.0218 </r>
       <r>    3.7169   -0.0000 </r>
       <r>    4.3610   -0.0000 </r>
       <r>    6.4447    0.0000 </r>
      </set>
      <set comment="kpoint 62">
       <r>    0.2213    1.0001 </r>
       <r>    2.0123   -0.0000 </r>
       <r>    2.5412   -0.0000 </r>
       <r>    4.2710   -0.0000 </r>
       <r>    6.3360    0.0000 </r>
      </set>
      <set comment="kpoint 63">
       <r>    0.7966    0.5580 </r>
       <r>    1.4539   -0.0000 </r>
       <r>    2.8905   -0.0000 </r>
       <r>    3.5270   -0.0000 </r>
       <r>    6.8334    0.0000 </r>
      </set>
      <set comment="kpoint 64">
       <r>    1.3520   -0.0004 </r>
       <r>    1.8174   -0.0000 </r>
       <r>    2.3315   -0.0000 </r>
       <r>    2.7899   -0.0000 </r>
       <r>    7.2662    0.0000 </r>
      </set>
      <set comment="kpoint 65">
       <r>   -1.2277    1.0000 </r>
       <r>    3.2337   -0.0000 </r>
       <r>    3.2337   -0.0000 </r>
       <r>    4.3651   -0.0000 </r>
       <r>    7.7083    0.0000 </r>
      </set>
      <set comment="kpoint 66">
       <r>   -0.8480    1.0000 </r>
       <r>    2.4921   -0.0000 </r>
       <r>    3.5766   -0.0000 </r>
       <r>    4.5031   -0.0000 </r>
       <r>    7.3544    0.0000 </r>
      </set>
      <set comment="kpoint 67">
       <r>   -0.3637    1.0000 </r>
       <r>    1.6687   -0.0000 </r>
       <r>    4.0179   -0.0000 </r>
       <r>    4.9068   -0.0000 </r>
       <r>    6.7198    0.0000 </r>
      </set>
      <set comment="kpoint 68">
       <r>    0.2215    1.0001 </r>
       <r>    0.9024    0.1526 </r>
       <r>    4.5580   -0.0000 </r>
       <r>    5.4350   -0.0000 </r>
       <r>    6.0508   -0.0000 </r>
      </set>
      <set comment="kpoint 69">
       <r>   -0.4710    1.0000 </r>
       <r>    2.6465   -0.0000 </r>
       <r>    3.1074   -0.0000 </r>
       <r>    4.5618   -0.0000 </r>
       <r>    6.0888   -0.0000 </r>
      </set>
      <set comment="kpoint 70">
       <r>    0.0095    1.0000 </r>
       <r>    2.0060   -0.0000 </r>
       <r>    3.3830   -0.0000 </r>
       <r>    4.9523   -0.0000 </r>
       <r>    5.2835   -0.0000 </r>
      </set>
      <set comment="kpoint 71">
       <r>    0.5893    1.0329 </r>
       <r>    1.2614   -0.0032 </r>
       <r>    3.9131   -0.0000 </r>
       <r>    4.5513   -0.0000 </r>
       <r>    5.4695   -0.0000 </r>
      </set>
      <set comment="kpoint 72">
       <r>    0.4844    1.0217 </r>
       <r>    2.2557   -0.0000 </r>
       <r>    2.7804   -0.0000 </r>
       <r>    4.4891   -0.0000 </r>
       <r>    5.3315   -0.0000 </r>
      </set>
      <set comment="kpoint 73">
       <r>    1.0554   -0.0355 </r>
       <r>    1.7059   -0.0000 </r>
       <r>    3.1289   -0.0000 </r>
       <r>    3.7579   -0.0000 </r>
       <r>    5.8243   -0.0000 </r>
      </set>
      <set comment="kpoint 74">
       <r>    1.6051   -0.0000 </r>
       <r>    2.0605   -0.0000 </r>
       <r>    2.5873   -0.0000 </r>
       <r>    3.0355   -0.0000 </r>
       <r>    6.2484   -0.0000 </r>
      </set>
      <set comment="kpoint 75">
       <r>   -0.0969    1.0000 </r>
       <r>    2.9883   -0.0000 </r>
       <r>    2.9883   -0.0000 </r>
       <r>    4.0874   -0.0000 </r>
       <r>    6.1777   -0.0000 </r>
      </set>
      <set comment="kpoint 76">
       <r>    0.3794    1.0047 </r>
       <r>    2.3408   -0.0000 </r>
       <r>    3.4284   -0.0000 </r>
       <r>    4.3247   -0.0000 </r>
       <r>    5.9287   -0.0000 </r>
      </set>
      <set comment="kpoint 77">
       <r>    0.9534    0.0349 </r>
       <r>    1.6161   -0.0000 </r>
       <r>    3.9671   -0.0000 </r>
       <r>    4.8136   -0.0000 </r>
       <r>    5.3879   -0.0000 </r>
      </set>
      <set comment="kpoint 78">
       <r>    0.8498    0.3367 </r>
       <r>    2.5969   -0.0000 </r>
       <r>    3.0510   -0.0000 </r>
       <r>    4.4764   -0.0000 </r>
       <r>    4.7544   -0.0000 </r>
      </set>
      <set comment="kpoint 79">
       <r>    1.4142   -0.0001 </r>
       <r>    2.0544   -0.0000 </r>
       <r>    3.4257   -0.0000 </r>
       <r>    4.0474   -0.0000 </r>
       <r>    4.9359   -0.0000 </r>
      </set>
      <set comment="kpoint 80">
       <r>    1.9559   -0.0000 </r>
       <r>    2.4014   -0.0000 </r>
       <r>    2.9236   -0.0000 </r>
       <r>    3.3622   -0.0000 </r>
       <r>    5.3272   -0.0000 </r>
      </set>
      <set comment="kpoint 81">
       <r>    1.3135   -0.0011 </r>
       <r>    3.0362   -0.0000 </r>
       <r>    3.0362   -0.0000 </r>
       <r>    4.0832   -0.0000 </r>
       <r>    4.9466   -0.0000 </r>
      </set>
      <set comment="kpoint 82">
       <r>    1.8676   -0.0000 </r>
       <r>    2.4873   -0.0000 </r>
       <r>    3.5740   -0.0000 </r>
       <r>    4.3748   -0.0000 </r>
       <r>    4.7947   -0.0000 </r>
      </set>
      <set comment="kpoint 83">
       <r>    2.3991   -0.0000 </r>
       <r>    2.8403   -0.0000 </r>
       <r>    3.2842   -0.0000 </r>
       <r>    3.7303   -0.0000 </r>
       <r>    4.5371   -0.0000 </r>
      </set>
      <set comment="kpoint 84">
       <r>    2.9162   -0.0000 </r>
       <r>    3.3777   -0.0000 </r>
       <r>    3.3777   -0.0000 </r>
       <r>    4.0139   -0.0000 </r>
       <r>    4.0836   -0.0000 </r>
      </set>
     </set>
    </set>
   </array>
  </eigenvalues>
  <separator name="orbital magnetization" >
   <v name="MAGDIPOLOUT">      0.00000000      0.00000000      0.00000000</v>
  </separator>
  <dos>
   <i name="efermi">      0.81035310 </i>
   <total>
    <array>
     <dimension dim="1">gridpoints</dimension>
     <dimension dim="2">spin</dimension>
     <field>energy</field>
     <field>total</field>
     <field>integrated</field>
     <set>
      <set comment="spin 1">
       <r>    -4.7169     0.0000     0.0000 </r>
       <r>    -4.6641     0.0000     0.0000 </r>
       <r>    -4.6113     0.0000     0.0000 </r>
       <r>    -4.5585     0.0000     0.0000 </r>
       <r>    -4.5057     0.0000     0.0000 </r>
       <r>    -4.4528     0.0000     0.0000 </r>
       <r>    -4.4000     0.0000     0.0000 </r>
       <r>    -4.3472    -0.0000    -0.0000 </r>
       <r>    -4.2944    -0.0000    -0.0000 </r>
       <r>    -4.2416    -0.0000    -0.0000 </r>
       <r>    -4.1888    -0.0000    -0.0000 </r>
       <r>    -4.1360    -0.0000    -0.0000 </r>
       <r>    -4.0832    -0.0000    -0.0000 </r>
       <r>    -4.0304    -0.0000    -0.0000 </r>
       <r>    -3.9776    -0.0000    -0.0000 </r>
       <r>    -3.9247    -0.0000    -0.0000 </r>
       <r>    -3.8719    -0.0000    -0.0000 </r>
       <r>    -3.8191    -0.0000    -0.0000 </r>
       <r>    -3.7663    -0.0000    -0.0000 </r>
       <r>    -3.7135    -0.0000    -0.0000 </r>
       <r>    -3.6607    -0.0000    -0.0000 </r>
       <r>    -3.6079    -0.0000    -0.0000 </r>
       <r>    -3.5551    -0.0000    -0.0000 </r>
       <r>    -3.5023    -0.0000    -0.0000 </r>
       <r>    -3.4494    -0.0000    -0.0000 </r>
       <r>    -3.3966    -0.0000    -0.0000 </r>
       <r>    -3.3438    -0.0000    -0.0000 </r>
       <r>    -3.2910    -0.0000    -0.0000 </r>
       <r>    -3.2382    -0.0000    -0.0000 </r>
       <r>    -3.1854    -0.0001    -0.0000 </r>
       <r>    -3.1326    -0.0003    -0.0000 </r>
       <r>    -3.0798    -0.0009    -0.0001 </r>
       <r>    -3.0270    -0.0020    -0.0002 </r>
       <r>    -2.9741    -0.0036    -0.0004 </r>
       <r>    -2.9213    -0.0052    -0.0006 </r>
       <r>    -2.8685    -0.0047    -0.0009 </r>
       <r>    -2.8157     0.0010    -0.0008 </r>
       <r>    -2.7629     0.0149    -0.0000 </r>
       <r>    -2.7101     0.0389     0.0020 </r>
       <r>    -2.6573     0.0717     0.0058 </r>
       <r>    -2.6045     0.1103     0.0116 </r>
       <r>    -2.5517     0.1505     0.0196 </r>
       <r>    -2.4989     0.1875     0.0295 </r>
       <r>    -2.4460     0.2168     0.0409 </r>
       <r>    -2.3932     0.2369     0.0534 </r>
       <r>    -2.3404     0.2520     0.0667 </r>
       <r>    -2.2876     0.2697     0.0810 </r>
       <r>    -2.2348     0.2940     0.0965 </r>
       <r>    -2.1820     0.3213     0.1135 </r>
       <r>    -2.1292     0.3440     0.1316 </r>
       <r>    -2.0764     0.3572     0.1505 </r>
       <r>    -2.0236     0.3613     0.1696 </r>
       <r>    -1.9707     0.3603     0.1886 </r>
       <r>    -1.9179     0.3608     0.2077 </r>
       <r>    -1.8651     0.3717     0.2273 </r>
       <r>    -1.8123     0.3999     0.2484 </r>
       <r>    -1.7595     0.4421     0.2718 </r>
       <r>    -1.7067     0.4835     0.2973 </r>
       <r>    -1.6539     0.5058     0.3240 </r>
       <r>    -1.6011     0.4986     0.3503 </r>
       <r>    -1.5483     0.4665     0.3750 </r>
       <r>    -1.4954     0.4294     0.3977 </r>
       <r>    -1.4426     0.4146     0.4196 </r>
       <r>    -1.3898     0.4404     0.4428 </r>
       <r>    -1.3370     0.5021     0.4693 </r>
       <r>    -1.2842     0.5732     0.4996 </r>
       <r>    -1.2314     0.6237     0.5325 </r>
       <r>    -1.1786     0.6376     0.5662 </r>
       <r>    -1.1258     0.6157     0.5987 </r>
       <r>    -1.0730     0.5721     0.6289 </r>
       <r>    -1.0202     0.5295     0.6569 </r>
       <r>    -0.9673     0.5128     0.6840 </r>
       <r>    -0.9145     0.5348     0.7122 </r>
       <r>    -0.8617     0.5837     0.7431 </r>
       <r>    -0.8089     0.6308     0.7764 </r>
       <r>    -0.7561     0.6522     0.8108 </r>
       <r>    -0.7033     0.6466     0.8450 </r>
       <r>    -0.6505     0.6344     0.8785 </r>
       <r>    -0.5977     0.6405     0.9123 </r>
       <r>    -0.5449     0.6755     0.9480 </r>
       <r>    -0.4920     0.7273     0.9864 </r>
       <r>    -0.4392     0.7696     1.0270 </r>
       <r>    -0.3864     0.7803     1.0682 </r>
       <r>    -0.3336     0.7540     1.1080 </r>
       <r>    -0.2808     0.6999     1.1450 </r>
       <r>    -0.2280     0.6345     1.1785 </r>
       <r>    -0.1752     0.5816     1.2092 </r>
       <r>    -0.1224     0.5701     1.2393 </r>
       <r>    -0.0696     0.6183     1.2720 </r>
       <r>    -0.0167     0.7162     1.3098 </r>
       <r>     0.0361     0.8285     1.3536 </r>
       <r>     0.0889     0.9163     1.4020 </r>
       <r>     0.1417     0.9567     1.4525 </r>
       <r>     0.1945     0.9457     1.5024 </r>
       <r>     0.2473     0.8928     1.5496 </r>
       <r>     0.3001     0.8187     1.5928 </r>
       <r>     0.3529     0.7510     1.6325 </r>
       <r>     0.4057     0.7137     1.6702 </r>
       <r>     0.4585     0.7150     1.7079 </r>
       <r>     0.5114     0.7443     1.7472 </r>
       <r>     0.5642     0.7800     1.7884 </r>
       <r>     0.6170     0.8049     1.8309 </r>
       <r>     0.6698     0.8206     1.8743 </r>
       <r>     0.7226     0.8467     1.9190 </r>
       <r>     0.7754     0.8997     1.9665 </r>
       <r>     0.8282     0.9710     2.0178 </r>
       <r>     0.8810     1.0282     2.0721 </r>
       <r>     0.9338     1.0384     2.1269 </r>
       <r>     0.9867     0.9928     2.1793 </r>
       <r>     1.0395     0.9153     2.2277 </r>
       <r>     1.0923     0.8531     2.2727 </r>
       <r>     1.1451     0.8505     2.3176 </r>
       <r>     1.1979     0.9174     2.3661 </r>
       <r>     1.2507     1.0157     2.4197 </r>
       <r>     1.3035     1.0830     2.4769 </r>
       <r>     1.3563     1.0769     2.5338 </r>
       <r>     1.4091     1.0047     2.5869 </r>
       <r>     1.4620     0.9174     2.6353 </r>
       <r>     1.5148     0.8770     2.6816 </r>
       <r>     1.5676     0.9160     2.7300 </r>
       <r>     1.6204     1.0159     2.7836 </r>
       <r>     1.6732     1.1201     2.8428 </r>
       <r>     1.7260     1.1730     2.9047 </r>
       <r>     1.7788     1.1576     2.9659 </r>
       <r>     1.8316     1.1010     3.0240 </r>
       <r>     1.8844     1.0506     3.0795 </r>
       <r>     1.9373     1.0391     3.1344 </r>
       <r>     1.9901     1.0624     3.1905 </r>
       <r>     2.0429     1.0848     3.2478 </r>
       <r>     2.0957     1.0703     3.3043 </r>
       <r>     2.1485     1.0149     3.3579 </r>
       <r>     2.2013     0.9484     3.4080 </r>
       <r>     2.2541     0.9036     3.4557 </r>
       <r>     2.3069     0.8856     3.5025 </r>
       <r>     2.3597     0.8736     3.5486 </r>
       <r>     2.4125     0.8493     3.5935 </r>
       <r>     2.4654     0.8205     3.6368 </r>
       <r>     2.5182     0.8173     3.6800 </r>
       <r>     2.5710     0.8685     3.7258 </r>
       <r>     2.6238     0.9793     3.7775 </r>
       <r>     2.6766     1.1286     3.8371 </r>
       <r>     2.7294     1.2782     3.9046 </r>
       <r>     2.7822     1.3892     3.9780 </r>
       <r>     2.8350     1.4385     4.0540 </r>
       <r>     2.8878     1.4275     4.1294 </r>
       <r>     2.9407     1.3741     4.2019 </r>
       <r>     2.9935     1.2926     4.2702 </r>
       <r>     3.0463     1.1823     4.3326 </r>
       <r>     3.0991     1.0407     4.3876 </r>
       <r>     3.1519     0.8896     4.4346 </r>
       <r>     3.2047     0.7836     4.4759 </r>
       <r>     3.2575     0.7839     4.5173 </r>
       <r>     3.3103     0.9154     4.5657 </r>
       <r>     3.3631     1.1437     4.6261 </r>
       <r>     3.4160     1.3943     4.6997 </r>
       <r>     3.4688     1.5956     4.7840 </r>
       <r>     3.5216     1.7055     4.8741 </r>
       <r>     3.5744     1.7083     4.9643 </r>
       <r>     3.6272     1.6010     5.0488 </r>
       <r>     3.6800     1.3958     5.1225 </r>
       <r>     3.7328     1.1342     5.1824 </r>
       <r>     3.7856     0.8898     5.2294 </r>
       <r>     3.8384     0.7465     5.2688 </r>
       <r>     3.8912     0.7560     5.3088 </r>
       <r>     3.9441     0.9053     5.3566 </r>
       <r>     3.9969     1.1187     5.4157 </r>
       <r>     4.0497     1.2971     5.4842 </r>
       <r>     4.1025     1.3687     5.5564 </r>
       <r>     4.1553     1.3180     5.6261 </r>
       <r>     4.2081     1.1852     5.6886 </r>
       <r>     4.2609     1.0450     5.7438 </r>
       <r>     4.3137     0.9774     5.7955 </r>
       <r>     4.3665     1.0351     5.8501 </r>
       <r>     4.4194     1.2102     5.9140 </r>
       <r>     4.4722     1.4200     5.9890 </r>
       <r>     4.5250     1.5388     6.0703 </r>
       <r>     4.5778     1.4738     6.1481 </r>
       <r>     4.6306     1.2366     6.2134 </r>
       <r>     4.6834     0.9481     6.2635 </r>
       <r>     4.7362     0.7650     6.3039 </r>
       <r>     4.7890     0.7853     6.3454 </r>
       <r>     4.8418     0.9926     6.3978 </r>
       <r>     4.8947     1.2678     6.4647 </r>
       <r>     4.9475     1.4578     6.5417 </r>
       <r>     5.0003     1.4697     6.6194 </r>
       <r>     5.0531     1.3290     6.6895 </r>
       <r>     5.1059     1.1522     6.7504 </r>
       <r>     5.1587     1.0520     6.8059 </r>
       <r>     5.2115     1.0586     6.8619 </r>
       <r>     5.2643     1.1232     6.9212 </r>
       <r>     5.3171     1.1813     6.9836 </r>
       <r>     5.3699     1.2043     7.0472 </r>
       <r>     5.4228     1.1973     7.1104 </r>
       <r>     5.4756     1.1669     7.1720 </r>
       <r>     5.5284     1.1076     7.2305 </r>
       <r>     5.5812     1.0189     7.2843 </r>
       <r>     5.6340     0.9263     7.3332 </r>
       <r>     5.6868     0.8761     7.3795 </r>
       <r>     5.7396     0.9061     7.4274 </r>
       <r>     5.7924     1.0199     7.4812 </r>
       <r>     5.8452     1.1832     7.5437 </r>
       <r>     5.8981     1.3429     7.6146 </r>
       <r>     5.9509     1.4564     7.6915 </r>
       <r>     6.0037     1.5093     7.7712 </r>
       <r>     6.0565     1.5101     7.8510 </r>
       <r>     6.1093     1.4698     7.9286 </r>
       <r>     6.1621     1.3896     8.0020 </r>
       <r>     6.2149     1.2697     8.0691 </r>
       <r>     6.2677     1.1276     8.1286 </r>
       <r>     6.3205     0.9990     8.1814 </r>
       <r>     6.3734     0.9157     8.2297 </r>
       <r>     6.4262     0.8841     8.2764 </r>
       <r>     6.4790     0.8864     8.3232 </r>
       <r>     6.5318     0.9042     8.3710 </r>
       <r>     6.5846     0.9377     8.4205 </r>
       <r>     6.6374     1.0011     8.4734 </r>
       <r>     6.6902     1.1001     8.5315 </r>
       <r>     6.7430     1.2141     8.5956 </r>
       <r>     6.7958     1.3012     8.6643 </r>
       <r>     6.8486     1.3224     8.7341 </r>
       <r>     6.9015     1.2668     8.8010 </r>
       <r>     6.9543     1.1589     8.8622 </r>
       <r>     7.0071     1.0429     8.9173 </r>
       <r>     7.0599     0.9575     8.9679 </r>
       <r>     7.1127     0.9157     9.0162 </r>
       <r>     7.1655     0.9002     9.0638 </r>
       <r>     7.2183     0.8779     9.1101 </r>
       <r>     7.2711     0.8256     9.1537 </r>
       <r>     7.3239     0.7514     9.1934 </r>
       <r>     7.3768     0.6933     9.2300 </r>
       <r>     7.4296     0.6939     9.2667 </r>
       <r>     7.4824     0.7712     9.3074 </r>
       <r>     7.5352     0.9050     9.3552 </r>
       <r>     7.5880     1.0464     9.4105 </r>
       <r>     7.6408     1.1402     9.4707 </r>
       <r>     7.6936     1.1490     9.5314 </r>
       <r>     7.7464     1.0671     9.5877 </r>
       <r>     7.7992     0.9212     9.6364 </r>
       <r>     7.8521     0.7535     9.6762 </r>
       <r>     7.9049     0.5993     9.7078 </r>
       <r>     7.9577     0.4760     9.7329 </r>
       <r>     8.0105     0.3888     9.7535 </r>
       <r>     8.0633     0.3407     9.7715 </r>
       <r>     8.1161     0.3323     9.7890 </r>
       <r>     8.1689     0.3527     9.8076 </r>
       <r>     8.2217     0.3780     9.8276 </r>
       <r>     8.2745     0.3829     9.8478 </r>
       <r>     8.3273     0.3544     9.8665 </r>
       <r>     8.3802     0.2984     9.8823 </r>
       <r>     8.4330     0.2326     9.8946 </r>
       <r>     8.4858     0.1754     9.9038 </r>
       <r>     8.5386     0.1377     9.9111 </r>
       <r>     8.5914     0.1208     9.9175 </r>
       <r>     8.6442     0.1197     9.9238 </r>
       <r>     8.6970     0.1271     9.9305 </r>
       <r>     8.7498     0.1372     9.9378 </r>
       <r>     8.8026     0.1464     9.9455 </r>
       <r>     8.8555     0.1543     9.9537 </r>
       <r>     8.9083     0.1606     9.9621 </r>
       <r>     8.9611     0.1637     9.9708 </r>
       <r>     9.0139     0.1593     9.9792 </r>
       <r>     9.0667     0.1436     9.9868 </r>
       <r>     9.1195     0.1159     9.9929 </r>
       <r>     9.1723     0.0811     9.9972 </r>
       <r>     9.2251     0.0468     9.9997 </r>
       <r>     9.2779     0.0198    10.0007 </r>
       <r>     9.3308     0.0033    10.0009 </r>
       <r>     9.3836    -0.0039    10.0007 </r>
       <r>     9.4364    -0.0051    10.0004 </r>
       <r>     9.4892    -0.0038    10.0002 </r>
       <r>     9.5420    -0.0021    10.0001 </r>
       <r>     9.5948    -0.0010    10.0000 </r>
       <r>     9.6476    -0.0004    10.0000 </r>
       <r>     9.7004    -0.0001    10.0000 </r>
       <r>     9.7532    -0.0000    10.0000 </r>
       <r>     9.8060    -0.0000    10.0000 </r>
       <r>     9.8589    -0.0000    10.0000 </r>
       <r>     9.9117    -0.0000    10.0000 </r>
       <r>     9.9645    -0.0000    10.0000 </r>
       <r>    10.0173    -0.0000    10.0000 </r>
       <r>    10.0701    -0.0000    10.0000 </r>
       <r>    10.1229    -0.0000    10.0000 </r>
       <r>    10.1757    -0.0000    10.0000 </r>
       <r>    10.2285    -0.0000    10.0000 </r>
       <r>    10.2813    -0.0000    10.0000 </r>
       <r>    10.3342    -0.0000    10.0000 </r>
       <r>    10.3870    -0.0000    10.0000 </r>
       <r>    10.4398     0.0000    10.0000 </r>
       <r>    10.4926     0.0000    10.0000 </r>
       <r>    10.5454     0.0000    10.0000 </r>
       <r>    10.5982     0.0000    10.0000 </r>
       <r>    10.6510     0.0000    10.0000 </r>
       <r>    10.7038     0.0000    10.0000 </r>
       <r>    10.7566     0.0000    10.0000 </r>
       <r>    10.8095     0.0000    10.0000 </r>
       <r>    10.8623     0.0000    10.0000 </r>
       <r>    10.9151     0.0000    10.0000 </r>
       <r>    10.9679     0.0000    10.0000 </r>
       <r>    11.0207     0.0000    10.0000 </r>
       <r>    11.0735     0.0000    10.0000 </r>
       <r>    11.1263     0.0000    10.0000 </r>
      </set>
     </set>
    </array>
   </total>
  </dos>
 </calculation>
 <structure name="finalpos" >
  <crystal>
   <varray name="basis" >
    <v>       4.05598527      -0.00000000      -0.00000000 </v>
    <v>      -0.00000000       4.05598527      -0.00000000 </v>
    <v>      -0.00000000       0.00000000       4.05598527 </v>
   </varray>
   <i name="volume">     66.72508067 </i>
   <varray name="rec_basis" >
    <v>       0.24654922       0.00000000       0.00000000 </v>
    <v>       0.00000000       0.24654922      -0.00000000 </v>
    <v>       0.00000000       0.00000000       0.24654922 </v>
   </varray>
  </crystal>
  <varray name="positions" >
   <v>      -0.00000000      -0.00000000      -0.00000000 </v>
   <v>       0.50000000       0.50000000       0.50000000 </v>
  </varray>
 </structure>
</modeling>
